IL_SMILES,NAME,ARTICLEID,IL-Tm (deg-C),IL-Tm (K),MolecularFormula,C,H,N,O,S,P,F,Cl,Br,I,Si
CCCC[N+](CCCC)(CCCC)CCCC.O=S(=O)([O-])OCC(F)(F)C(F)(F)C(F)(F)C(F)F,C0297_A0078,A132065,-8,265.15,C21H39F8NO4S,21,39,1,4,1,0,8,0,0,0,0
CCCC[N+](CCCC)(CCCC)CCCC.O=S(=O)([C-](S(=O)(=O)C(F)(F)F)S(=O)(=O)C(F)(F)F)C(F)(F)F,C0297_A0003,A132065,59,332.15,C20H36F9NO6S3,20,36,1,6,3,0,9,0,0,0,0
CCCCCC[N+](CCCC)(CCCC)CCCC.N#C[N-]C#N,C0319_A0056,A132065,-43,230.15,C20H40N4,20,40,4,0,0,0,0,0,0,0,0
CCCCCC[N+](CCCC)(CCCC)CCCC.Cc1ccc(S(=O)(=O)[O-])cc1,C0319_A0030,A132065,50,323.15,C25H47NO3S,25,47,1,3,1,0,0,0,0,0,0
CCCCC[N+](CCCCC)(CCCCC)CCCCC.O=S(=O)([N-]S(=O)(=O)C(F)(F)F)C(F)(F)F,C0832_A0048,A132065,25,298.15,C22H44F6N2O4S2,22,44,2,4,2,0,6,0,0,0,0
CCCCC[N+](CCCCC)(CCCCC)CCCCC.O=C([N-]S(=O)(=O)C(F)(F)F)C(F)(F)F,C0832_A0034,A132065,16,289.15,C23H44F6N2O3S,23,44,2,3,1,0,6,0,0,0,0
CCCCC[N+](CCCCC)(CCCCC)CCCCC.O=S(=O)([N-]S(=O)(=O)C(F)(F)C(F)(F)F)C(F)(F)F,C0832_A0074,A132065,25,298.15,C23H44F8N2O4S2,23,44,2,4,2,0,8,0,0,0,0
CCCCCC[N+](CCCCCC)(CCCCCC)CCCCCC.O=S(=O)([N-]S(=O)(=O)C(F)(F)F)C(F)(F)F,C0234_A0048,A132065,-8,265.15,C26H52F6N2O4S2,26,52,2,4,2,0,6,0,0,0,0
CCCCCC[N+](CCCCCC)(CCCCCC)CCCCCC.O=C([O-])c1ccccc1,C0234_A0031,A132065,-50,223.15,C31H57NO2,31,57,1,2,0,0,0,0,0,0,0
CCCCCCCC[N+](CCC)(CCCCCCCC)CCCCCCCC.[Br-],C0020_A0004,A132065,74,347.15,C27H58BrN,27,58,1,0,0,0,0,0,1,0,0
CCCCCCC[N+](CCCCCCC)(CCCCCCC)CCCCCCC.[Cl-],C0565_A0033,A132065,-9,264.15,C28H60ClN,28,60,1,0,0,0,0,1,0,0,0
CCCCCCC[N+](CCCCCCC)(CCCCCCC)CCCCCCC.O=S(=O)([N-]S(=O)(=O)C(F)(F)F)C(F)(F)F,C0565_A0048,A132065,11,284.15,C30H60F6N2O4S2,30,60,2,4,2,0,6,0,0,0,0
CCCCCCCCCCCCCC[N+](CCCCC)(CCCCC)CCCCC.[Br-],C0034_A0004,A132065,63,336.15,C29H62BrN,29,62,1,0,0,0,0,0,1,0,0
CCCCCCCC[N+](CCCCCCCC)(CCCCCCCC)CCCCCCCC.O=S(=O)([N-]S(=O)(=O)C(F)(F)F)C(F)(F)F,C1093_A0048,A132065,31,304.15,C34H68F6N2O4S2,34,68,2,4,2,0,6,0,0,0,0
CCCCCCCCCCCC[N+](C)(CCCCCCCCCCCC)CCCCCCCCCCCC.[Br-],C0512_A0004,A132065,75,348.15,C37H78BrN,37,78,1,0,0,0,0,0,1,0,0
CCCCCCCCCCCCCC[NH3+].O=S(=O)([N-]S(=O)(=O)C(F)(F)F)C(F)(F)F,C0079_A0048,A132065,31,304.15,C16H32F6N2O4S2,16,32,2,4,2,0,6,0,0,0,0
CC[N+](C)(C)COC1CC(C)CCC1C(C)C.F[B-](F)(F)F,C0446_A0020,A132065,163,436.15,C15H32BF4NO,15,32,1,1,0,0,4,0,0,0,0
CC1CCC(C(C)C)C(OC[N+](C)(C)C(C)C)C1.F[B-](F)(F)F,C1138_A0020,A132065,205,478.15,C16H34BF4NO,16,34,1,1,0,0,4,0,0,0,0
CC1CCC(C(C)C)C(OC[N+](C)(C)C(C)C)C1.O=S(=O)([N-]S(=O)(=O)C(F)(F)F)C(F)(F)F,C1138_A0048,A132065,41,314.15,C18H34F6N2O5S2,18,34,2,5,2,0,6,0,0,0,0
CCCC[N+](C)(C)COC1CC(C)CCC1C(C)C.[I-],C0394_A0069,A132065,82,355.15,C17H36INO,17,36,1,1,0,0,0,0,0,1,0
CCCC[N+](C)(C)COC1CC(C)CCC1C(C)C.[O-][Cl+3]([O-])([O-])[O-],C0394_A0051,A132065,78,351.15,C17H36ClNO5,17,36,1,5,0,0,0,1,0,0,0
CCCC[N+](C)(C)COC1CC(C)CCC1C(C)C.F[B-](F)(F)F,C0394_A0020,A132065,70,343.15,C17H36BF4NO,17,36,1,1,0,0,4,0,0,0,0
CCCC[N+](C)(C)COC1CC(C)CCC1C(C)C.F[P-](F)(F)(F)(F)F,C0394_A0011,A132065,104,377.15,C17H36F6NOP,17,36,1,1,0,1,6,0,0,0,0
CCCC[N+](C)(C)COC1CC(C)CCC1C(C)C.O=C([O-])C(F)(F)F,C0394_A0064,A132065,73,346.15,C19H36F3NO3,19,36,1,3,0,0,3,0,0,0,0
CCCCCC[N+](C)(C)COC1CC(C)CCC1C(C)C.F[B-](F)(F)F,C0179_A0020,A132065,43,316.15,C19H40BF4NO,19,40,1,1,0,0,4,0,0,0,0
CCCCCCC[N+](C)(C)COC1CC(C)CCC1C(C)C.F[B-](F)(F)F,C0864_A0020,A132065,71,344.15,C20H42BF4NO,20,42,1,1,0,0,4,0,0,0,0
CCCCCCCC[N+](C)(C)COC1CC(C)CCC1C(C)C.F[B-](F)(F)F,C0099_A0020,A132065,88,361.15,C21H44BF4NO,21,44,1,1,0,0,4,0,0,0,0
CCCCCCCCC[N+](C)(C)COC1CC(C)CCC1C(C)C.F[B-](F)(F)F,C0962_A0020,A132065,71,344.15,C22H46BF4NO,22,46,1,1,0,0,4,0,0,0,0
CCCCCCCCCC[N+](C)(C)COC1CC(C)CCC1C(C)C.F[B-](F)(F)F,C0662_A0020,A132065,57,330.15,C23H48BF4NO,23,48,1,1,0,0,4,0,0,0,0
CCCCCCCCCCC[N+](C)(C)COC1CC(C)CCC1C(C)C.F[B-](F)(F)F,C0823_A0020,A132065,46,319.15,C24H50BF4NO,24,50,1,1,0,0,4,0,0,0,0
CCCCCCCCCCCC[N+](C)(C)COC1CC(C)CCC1C(C)C.F[B-](F)(F)F,C0840_A0020,A132065,43,316.15,C25H52BF4NO,25,52,1,1,0,0,4,0,0,0,0
CC1CCC(C(C)C)C(OC[N+](C)(C)Cc2ccccc2)C1.F[B-](F)(F)F,C0934_A0020,A132065,99,372.15,C20H34BF4NO,20,34,1,1,0,0,4,0,0,0,0
CC1CCC(C(C)C)C(OC[N+](C)(C)Cc2ccccc2)C1.O=S(=O)([N-]S(=O)(=O)C(F)(F)F)C(F)(F)F,C0934_A0048,A132065,47,320.15,C22H34F6N2O5S2,22,34,2,5,2,0,6,0,0,0,0
CC[N+](C)(CC)COC1CC(C)CCC1C(C)C.F[B-](F)(F)F,C0213_A0020,A132065,151,424.15,C16H34BF4NO,16,34,1,1,0,0,4,0,0,0,0
CC[N+](CC)(CC)COC1CC(C)CCC1C(C)C.F[B-](F)(F)F,C0686_A0020,A132065,126,399.15,C17H36BF4NO,17,36,1,1,0,0,4,0,0,0,0
CCC[N+](C)(CC)CC.F[B-](F)(F)F,C0272_A0020,A132065,186,459.15,C8H20BF4N,8,20,1,0,0,0,4,0,0,0,0
CCC[N+](C)(CC)CC.O=S(=O)([N-]S(=O)(=O)C(F)(F)F)C(F)(F)F,C0272_A0048,A132065,14,287.15,C10H20F6N2O4S2,10,20,2,4,2,0,6,0,0,0,0
CCC[N+](C)(CC)CC.F[B-](F)(F)C(F)(F)F,C0272_A0008,A132065,95,368.15,C9H20BF6N,9,20,1,0,0,0,6,0,0,0,0
CCC[N+](C)(CC)CC.F[B-](F)(F)C(F)(F)C(F)(F)F,C0272_A0043,A132065,54,327.15,C10H20BF8N,10,20,1,0,0,0,8,0,0,0,0
CCC[N+](C)(CC)CC.F[B-](F)(F)C(F)(F)C(F)(F)C(F)(F)F,C0272_A0009,A132065,57,330.15,C11H20BF10N,11,20,1,0,0,0,10,0,0,0,0
CCC[N+](C)(CC)CC.F[B-](F)(F)C(F)(F)C(F)(F)C(F)(F)C(F)(F)F,C0272_A0021,A132065,54,327.15,C12H20BF12N,12,20,1,0,0,0,12,0,0,0,0
CCCC[N+](C)(CC)CC.F[B-](F)(F)F,C0981_A0020,A132065,165,438.15,C9H22BF4N,9,22,1,0,0,0,4,0,0,0,0
CCCC[N+](C)(CC)CC.O=S(=O)([N-]S(=O)(=O)C(F)(F)F)C(F)(F)F,C0981_A0048,A132065,9,282.15,C11H22F6N2O4S2,11,22,2,4,2,0,6,0,0,0,0
CCCC[N+](C)(CC)CC.F[B-](F)(F)C(F)(F)F,C0981_A0008,A132065,-3,270.15,C10H22BF6N,10,22,1,0,0,0,6,0,0,0,0
CCCC[N+](C)(CC)CC.F[B-](F)(F)C(F)(F)C(F)(F)F,C0981_A0043,A132065,15,288.15,C11H22BF8N,11,22,1,0,0,0,8,0,0,0,0
CCCC[N+](C)(CC)CC.F[B-](F)(F)C(F)(F)C(F)(F)C(F)(F)F,C0981_A0009,A132065,50,323.15,C12H22BF10N,12,22,1,0,0,0,10,0,0,0,0
CCCC[N+](C)(CC)CC.F[B-](F)(F)C(F)(F)C(F)(F)C(F)(F)C(F)(F)F,C0981_A0021,A132065,60,333.15,C13H22BF12N,13,22,1,0,0,0,12,0,0,0,0
COCC[N+](C)(C)C.F[B-](F)(F)F,C0452_A0020,A132065,54,327.15,C6H16BF4NO,6,16,1,1,0,0,4,0,0,0,0
COCC[N+](C)(C)C.O=S(=O)([N-]S(=O)(=O)C(F)(F)F)C(F)(F)F,C0452_A0048,A132065,37,310.15,C8H16F6N2O5S2,8,16,2,5,2,0,6,0,0,0,0
COCC[N+](C)(C)C.F[B-](F)(F)C(F)(F)F,C0452_A0008,A132065,77,350.15,C7H16BF6NO,7,16,1,1,0,0,6,0,0,0,0
COCC[N+](C)(C)C.F[B-](F)(F)C(F)(F)C(F)(F)F,C0452_A0043,A132065,30,303.15,C8H16BF8NO,8,16,1,1,0,0,8,0,0,0,0
COCC[N+](C)(C)C.F[B-](F)(F)C(F)(F)C(F)(F)C(F)(F)F,C0452_A0009,A132065,23,296.15,C9H16BF10NO,9,16,1,1,0,0,10,0,0,0,0
COCC[N+](C)(C)C.F[B-](F)(F)C(F)(F)C(F)(F)C(F)(F)C(F)(F)F,C0452_A0021,A132065,50,323.15,C10H16BF12NO,10,16,1,1,0,0,12,0,0,0,0
CC[N+](C)(C)CCOC.F[B-](F)(F)F,C0918_A0020,A132065,4,277.15,C7H18BF4NO,7,18,1,1,0,0,4,0,0,0,0
CC[N+](C)(C)CCOC.F[B-](F)(F)C(F)(F)F,C0918_A0008,A132065,8,281.15,C8H18BF6NO,8,18,1,1,0,0,6,0,0,0,0
CC[N+](C)(C)CCOC.F[B-](F)(F)C(F)(F)C(F)(F)F,C0918_A0043,A132065,-33,240.15,C9H18BF8NO,9,18,1,1,0,0,8,0,0,0,0
CC[N+](C)(C)CCOC.F[B-](F)(F)C(F)(F)C(F)(F)C(F)(F)C(F)(F)F,C0918_A0021,A132065,-28,245.15,C11H18BF12NO,11,18,1,1,0,0,12,0,0,0,0
CC[N+](C)(CC)CCOC.F[B-](F)(F)C(F)(F)F,C0406_A0008,A132065,-22,251.15,C9H20BF6NO,9,20,1,1,0,0,6,0,0,0,0
CC[N+](CC)(CC)CCOC.F[B-](F)(F)F,C0260_A0020,A132065,56,329.15,C9H22BF4NO,9,22,1,1,0,0,4,0,0,0,0
CC[N+](CC)(CC)CCOC.F[B-](F)(F)C(F)(F)F,C0260_A0008,A132065,10,283.15,C10H22BF6NO,10,22,1,1,0,0,6,0,0,0,0
CC[N+](CC)(CC)CCOC.F[B-](F)(F)C(F)(F)C(F)(F)F,C0260_A0043,A132065,3,276.15,C11H22BF8NO,11,22,1,1,0,0,8,0,0,0,0
CC[N+](CC)(CC)CCOC.F[B-](F)(F)C(F)(F)C(F)(F)C(F)(F)F,C0260_A0009,A132065,6,279.15,C12H22BF10NO,12,22,1,1,0,0,10,0,0,0,0
CC[N+](CC)(CC)CCOC.F[B-](F)(F)C(F)(F)C(F)(F)C(F)(F)C(F)(F)F,C0260_A0021,A132065,11,284.15,C13H22BF12NO,13,22,1,1,0,0,12,0,0,0,0
CCCCCCCC[N+](C)(CCCCCCCC)CCCCCCCC.F[B-](F)(F)F,C0979_A0020,A132065,60,333.15,C25H54BF4N,25,54,1,0,0,0,4,0,0,0,0
CCCCCCCC[N+](C)(CCCCCCCC)CCCCCCCC.FC(F)(F)c1cc([B-](c2cc(C(F)(F)F)cc(C(F)(F)F)c2)(c2cc(C(F)(F)F)cc(C(F)(F)F)c2)c2cc(C(F)(F)F)cc(C(F)(F)F)c2)cc(C(F)(F)F)c1,C0979_A0006,A132065,36,309.15,C57H66BF24N,57,66,1,0,0,0,24,0,0,0,0
CCCCCCCC[N+](C)(CCCCCCCC)CCCCCCCC.[BH4-],C0979_A0026,A132065,-8,265.15,C25H58BN,25,58,1,0,0,0,0,0,0,0,0
CCCCCCCC[N+](C)(CCCCCCCC)CCCCCCCC.O=S(=O)([N-]S(=O)(=O)C(F)(F)F)C(F)(F)F,C0979_A0048,A132065,-39,234.15,C27H54F6N2O4S2,27,54,2,4,2,0,6,0,0,0,0
CCCCCCCC[N+](C)(CCCCCCCC)CCCCCCCC.O=[N+]([O-])[O-],C0979_A0090,A132065,13,286.15,C25H54N2O3,25,54,2,3,0,0,0,0,0,0,0
CCCCCCCC[N+](C)(CCCCCCCC)CCCCCCCC.Cc1ccc(S(=O)(=O)[O-])cc1,C0979_A0030,A132065,78,351.15,C32H61NO3S,32,61,1,3,1,0,0,0,0,0,0
CCCCCCCC[N+](C)(CCCCCCCC)CCCCCCCC.O=S(=O)([O-])OCC(F)(F)F,C0979_A0080,A132065,4,277.15,C27H56F3NO4S,27,56,1,4,1,0,3,0,0,0,0
CCCCCCCC[N+](C)(CCCCCCCC)CCCCCCCC.O=S(=O)([O-])OCC(F)(F)C(F)F,C0979_A0038,A132065,-5,268.15,C28H57F4NO4S,28,57,1,4,1,0,4,0,0,0,0
CCCCCCCC[N+](C)(CCCCCCCC)CCCCCCCC.O=S(=O)([O-])OCC(F)(F)C(F)(F)C(F)(F)C(F)F,C0979_A0078,A132065,-2,271.15,C30H57F8NO4S,30,57,1,4,1,0,8,0,0,0,0
CCCCCCCC[N+](C)(CCCCCCCC)CCCCCCCC.O=S(=O)([O-])O,C0979_A0017,A132065,-22,251.15,C25H55NO4S,25,55,1,4,1,0,0,0,0,0,0
CCCCCCCC[N+](C)(CCCCCCCC)CCCCCCCC.F[P-](F)(F)(F)(F)F,C0979_A0011,A132065,59,332.15,C25H54F6NP,25,54,1,0,0,1,6,0,0,0,0
CCCCCCCC[N+](C)(CCCCCCCC)CCCCCCCC.O=P([O-])(O)O,C0979_A0012,A132065,-23,250.15,C25H56NO4P,25,56,1,4,0,1,0,0,0,0,0
CC(=O)[O-].CCCCCCCC[N+](C)(CCCCCCCC)CCCCCCCC,C0979_A0087,A132065,-23,250.15,C27H57NO2,27,57,1,2,0,0,0,0,0,0,0
CCCCCCCC[N+](C)(CCCCCCCC)CCCCCCCC.O=C[O-],C0979_A0024,A132065,4,277.15,C26H55NO2,26,55,1,2,0,0,0,0,0,0,0
CCCCCCCC[N+](C)(CCCCCCCC)CCCCCCCC.O=C([O-])O,C0979_A0070,A132065,-7,266.15,C26H55NO3,26,55,1,3,0,0,0,0,0,0,0
CC=CC(=O)[O-].CCCCCCCC[N+](C)(CCCCCCCC)CCCCCCCC,C0979_A0047,A132065,18,291.15,C29H59NO2,29,59,1,2,0,0,0,0,0,0,0
CCCCCCCC[N+]12CCN(CC1)CC2.O=S(=O)([N-]S(=O)(=O)C(F)(F)F)C(F)(F)F,C0176_A0048,A132065,26,299.15,C16H29F6N3O4S2,16,29,3,4,2,0,6,0,0,0,0
CCC[NH+](CCC)CCC.O=C([CH-]C(=O)C(F)(F)F)C(F)(F)F,C0623_A0010,A132065,-10,263.15,C14H23F6NO2,14,23,1,2,0,0,6,0,0,0,0
CC(C)(C)C(=O)[CH-]C(=O)C(F)(F)C(F)(F)C(F)(F)F.CCC[NH+](CCC)CCC,C0623_A0037,A132065,-83,190.15,C19H32F7NO2,19,32,1,2,0,0,7,0,0,0,0
CCC[NH+](CCC)CCC.O=C([CH-]C(=O)C(F)(F)F)c1ccco1,C0623_A0036,A132065,-82,191.15,C17H26F3NO3,17,26,1,3,0,0,3,0,0,0,0
CCC[NH+](CCC)CCC.O=C([CH-]C(=O)C(F)(F)F)c1cccs1,C0623_A0005,A132065,-65,208.15,C17H26F3NO2S,17,26,1,2,1,0,3,0,0,0,0
CCCC[NH+](CCCC)CCCC.O=[N+]([O-])[O-],C0932_A0090,A132065,22,295.15,C12H28N2O3,12,28,2,3,0,0,0,0,0,0,0
CCCC[NH+](CCCC)CCCC.O=C([CH-]C(=O)C(F)(F)F)C(F)(F)F,C0932_A0010,A132065,-93,180.15,C17H29F6NO2,17,29,1,2,0,0,6,0,0,0,0
CC(C)(C)C(=O)[CH-]C(=O)C(F)(F)C(F)(F)C(F)(F)F.CCCC[NH+](CCCC)CCCC,C0932_A0037,A132065,-65,208.15,C22H38F7NO2,22,38,1,2,0,0,7,0,0,0,0
CCCC[NH+](CCCC)CCCC.O=C([CH-]C(=O)C(F)(F)F)c1ccco1,C0932_A0036,A132065,-65,208.15,C20H32F3NO3,20,32,1,3,0,0,3,0,0,0,0
CCCC[NH+](CCCC)CCCC.O=C([CH-]C(=O)C(F)(F)F)c1cccs1,C0932_A0005,A132065,52,325.15,C20H32F3NO2S,20,32,1,2,1,0,3,0,0,0,0
CC(C)CCCCC[NH+](CCCCCC(C)C)CCCCCC(C)C.O=C([CH-]C(=O)C(F)(F)F)C(F)(F)F,C0134_A0010,A132065,-11,262.15,C29H53F6NO2,29,53,1,2,0,0,6,0,0,0,0
CC(C)(C)C(=O)[CH-]C(=O)C(F)(F)C(F)(F)C(F)(F)F.CC(C)CCCCC[NH+](CCCCCC(C)C)CCCCCC(C)C,C0134_A0037,A132065,-96,177.15,C34H62F7NO2,34,62,1,2,0,0,7,0,0,0,0
CC(C)CCCCC[NH+](CCCCCC(C)C)CCCCCC(C)C.O=C([CH-]C(=O)C(F)(F)F)c1ccco1,C0134_A0036,A132065,-92,181.15,C32H56F3NO3,32,56,1,3,0,0,3,0,0,0,0
CC(C)CCCCC[NH+](CCCCCC(C)C)CCCCCC(C)C.O=C([CH-]C(=O)C(F)(F)F)c1cccs1,C0134_A0005,A132065,-86,187.15,C32H56F3NO2S,32,56,1,2,1,0,3,0,0,0,0
CCC[NH2+]CCC.O=C([CH-]C(=O)C(F)(F)F)C(F)(F)F,C0036_A0010,A132065,97,370.15,C11H17F6NO2,11,17,1,2,0,0,6,0,0,0,0
CCC[NH2+]CCC.O=C([CH-]C(=O)C(F)(F)F)c1cccs1,C0036_A0005,A132065,103,376.15,C14H20F3NO2S,14,20,1,2,1,0,3,0,0,0,0
CCC[NH2+]CCC.N#C[S-],C0036_A0015,A132065,6,279.15,C7H16N2S,7,16,2,0,1,0,0,0,0,0,0
CC(C)(C)C(=O)[CH-]C(=O)C(F)(F)C(F)(F)C(F)(F)F.CC(C)[NH2+]C(C)C,C0903_A0037,A132065,91,364.15,C16H26F7NO2,16,26,1,2,0,0,7,0,0,0,0
CC(C)[NH2+]C(C)C.O=C([CH-]C(=O)C(F)(F)F)c1cccs1,C0903_A0005,A132065,124,397.15,C14H20F3NO2S,14,20,1,2,1,0,3,0,0,0,0
CCCC[NH2+]CCCC.O=C([CH-]C(=O)C(F)(F)F)C(F)(F)F,C0287_A0010,A132065,84,357.15,C13H21F6NO2,13,21,1,2,0,0,6,0,0,0,0
CCCC[NH2+]CCCC.O=C([CH-]C(=O)C(F)(F)F)c1cccs1,C0287_A0005,A132065,71,344.15,C16H24F3NO2S,16,24,1,2,1,0,3,0,0,0,0
CC(C)(C)C(=O)[CH-]C(=O)C(F)(F)C(F)(F)C(F)(F)F.CC(C)C[NH2+]CC(C)C,C0779_A0037,A132065,63,336.15,C18H30F7NO2,18,30,1,2,0,0,7,0,0,0,0
CC(C)C[NH2+]CC(C)C.O=C([CH-]C(=O)C(F)(F)F)c1cccs1,C0779_A0005,A132065,140,413.15,C16H24F3NO2S,16,24,1,2,1,0,3,0,0,0,0
CC[N+]12CCN(CC1)CC2.O=S(=O)([N-]S(=O)(=O)C(F)(F)F)C(F)(F)F,C0868_A0048,A132065,76,349.15,C10H17F6N3O4S2,10,17,3,4,2,0,6,0,0,0,0
CC[NH+](CC)CC.O=S(=O)([N-]S(=O)(=O)C(F)(F)F)C(F)(F)F,C0473_A0048,A132065,3,276.15,C8H16F6N2O4S2,8,16,2,4,2,0,6,0,0,0,0
CC[NH3+].O=S(=O)([N-]S(=O)(=O)C(F)(F)F)C(F)(F)F,C0843_A0048,A132065,48,321.15,C4H8F6N2O4S2,4,8,2,4,2,0,6,0,0,0,0
CC[NH3+].O=[N+]([O-])[O-],C0843_A0090,A132065,9,282.15,C2H8N2O3,2,8,2,3,0,0,0,0,0,0,0
CC[NH3+].O=S(=O)([O-])O,C0843_A0017,A132065,40,313.15,C2H9NO4S,2,9,1,4,1,0,0,0,0,0,0
CC(=O)[O-].CC[NH3+],C0843_A0087,A132065,87,360.15,C4H11NO2,4,11,1,2,0,0,0,0,0,0,0
CC[NH3+].O=C[O-],C0843_A0024,A132065,-15,258.15,C3H9NO2,3,9,1,2,0,0,0,0,0,0,0
C[N+](C)(C)CC#N.O=S(=O)([N-]S(=O)(=O)C(F)(F)F)C(F)(F)F,C0688_A0048,A132065,35,308.15,C7H11F6N3O4S2,7,11,3,4,2,0,6,0,0,0,0
O=[N+]([O-])[O-].[NH3+]CCO,C0449_A0090,A132065,51,324.15,C2H8N2O4,2,8,2,4,0,0,0,0,0,0,0
O=C[O-].[NH3+]CCO,C0449_A0024,A132065,-82,191.15,C3H9NO3,3,9,1,3,0,0,0,0,0,0,0
COS(=O)(=O)[O-].[NH3+]CCO,C0449_A0044,A132065,99,372.15,C3H11NO5S,3,11,1,5,1,0,0,0,0,0,0
CCCCC[N+](C)(C)CCCCC.[Br-],C0818_A0004,A132065,76,349.15,C12H28BrN,12,28,1,0,0,0,0,0,1,0,0
CCCCC[N+](C)(C)CCCCC.[I-],C0818_A0069,A132065,86,359.15,C12H28IN,12,28,1,0,0,0,0,0,0,1,0
CCCCCC[N+](C)(C)CCCCCC.[Br-],C0332_A0004,A132065,54,327.15,C14H32BrN,14,32,1,0,0,0,0,0,1,0,0
CCCCCC[N+](C)(C)CCCCCC.[I-],C0332_A0069,A132065,45,318.15,C14H32IN,14,32,1,0,0,0,0,0,0,1,0
CCCCC[N+](CC)(CC)CCCCC.[Br-],C0813_A0004,A132065,58,331.15,C14H32BrN,14,32,1,0,0,0,0,0,1,0,0
CCCCC[N+](CC)(CC)CCCCC.[I-],C0813_A0069,A132065,95,368.15,C14H32IN,14,32,1,0,0,0,0,0,0,1,0
CCCCCC[N+](CC)(CC)CCCCCC.[Br-],C0822_A0004,A132065,75,348.15,C16H36BrN,16,36,1,0,0,0,0,0,1,0,0
CCCCCC[N+](CC)(CC)CCCCCC.[I-],C0822_A0069,A132065,73,346.15,C16H36IN,16,36,1,0,0,0,0,0,0,1,0
O=C1CCCCC[NH2+]1.O=[N+]([O-])[O-],C0225_A0090,A132065,45,318.15,C6H12N2O4,6,12,2,4,0,0,0,0,0,0,0
O=C([O-])c1ccccc1.O=C1CCCCC[NH2+]1,C0225_A0031,A132065,31,304.15,C13H17NO3,13,17,1,3,0,0,0,0,0,0,0
O=C([O-])CCl.O=C1CCCCC[NH2+]1,C0225_A0089,A132065,29,302.15,C8H14ClNO3,8,14,1,3,0,0,0,1,0,0,0
CCCC(=O)OCC[N+](C)(C)C.O=C1[N-]S(=O)(=O)c2ccccc21,C0230_A0007,A132065,89,362.15,C16H24N2O5S,16,24,2,5,1,0,0,0,0,0,0
CC1=CC(=O)[N-]S(=O)(=O)O1.CCCC(=O)OCC[N+](C)(C)C,C0230_A0049,A132065,49,322.15,C13H24N2O6S,13,24,2,6,1,0,0,0,0,0,0
C[N+](C)(C)CCO.O=P([O-])(O)O,C0482_A0012,A132065,119,392.15,C5H16NO5P,5,16,1,5,0,1,0,0,0,0,0
O=C1CCC[NH2+]1.O=[N+]([O-])[O-],C0873_A0090,A132065,8,281.15,C4H8N2O4,4,8,2,4,0,0,0,0,0,0,0
O=C([O-])c1ccccc1.O=C1CCC[NH2+]1,C0873_A0031,A132065,7,280.15,C11H13NO3,11,13,1,3,0,0,0,0,0,0,0
O=C([O-])CCl.O=C1CCC[NH2+]1,C0873_A0089,A132065,32,305.15,C6H10ClNO3,6,10,1,3,0,0,0,1,0,0,0
CCCCCCCCCC[N+](C)(C)CCCCCCCCCC.F[B-](F)(F)F,C0514_A0020,A132065,28,301.15,C22H48BF4N,22,48,1,0,0,0,4,0,0,0,0
CCCCCCCCCC[N+](C)(C)CCCCCCCCCC.O=N[O-],C0514_A0062,A132065,-2,271.15,C22H48N2O2,22,48,2,2,0,0,0,0,0,0,0
CCCCCCCCCCCCC[N+](C)(C)Cc1ccccc1.F[B-](F)(F)F,C0358_A0020,A132065,56,329.15,C22H40BF4N,22,40,1,0,0,0,4,0,0,0,0
CCCCCCCCCCCCC[N+](C)(C)Cc1ccccc1.O=[N+]([O-])[O-],C0358_A0090,A132065,36,309.15,C22H40N2O3,22,40,2,3,0,0,0,0,0,0,0
CC(C)(C)CC(C)(C)c1ccc(OCCOCC[N+](C)(C)Cc2ccccc2)cc1.O=[N+]([O-])[O-],C0745_A0090,A132065,85,358.15,C27H42N2O5,27,42,2,5,0,0,0,0,0,0,0
C[N+](C)(C)CCCCS(=O)(=O)O.O=S(=O)([O-])O,C0329_A0017,A132065,-11,262.15,C7H19NO7S2,7,19,1,7,2,0,0,0,0,0,0
C[NH3+].O=C[O-],C0679_A0024,A132065,13,286.15,C2H7NO2,2,7,1,2,0,0,0,0,0,0,0
CCC[NH3+].O=[N+]([O-])[O-],C0647_A0090,A132065,4,277.15,C3H10N2O3,3,10,2,3,0,0,0,0,0,0,0
CCC[NH3+].O=C([O-])C(F)(F)F,C0647_A0064,A132065,67,340.15,C5H10F3NO2,5,10,1,2,0,0,3,0,0,0,0
CCC[NH3+].O=C[O-],C0647_A0024,A132065,50,323.15,C4H11NO2,4,11,1,2,0,0,0,0,0,0,0
CCCC[NH3+].O=C[O-],C0600_A0024,A132065,2,275.15,C5H13NO2,5,13,1,2,0,0,0,0,0,0,0
CCCC[NH3+].N#C[S-],C0600_A0015,A132065,21,294.15,C5H12N2S,5,12,2,0,1,0,0,0,0,0,0
CCCCC[NH3+].O=C[O-],C0546_A0024,A132065,12,285.15,C6H15NO2,6,15,1,2,0,0,0,0,0,0,0
CC(C)C[NH3+].O=C[O-],C0511_A0024,A132065,26,299.15,C5H13NO2,5,13,1,2,0,0,0,0,0,0,0
CCC(C)C[NH3+].O=C[O-],C0040_A0024,A132065,-1,272.15,C6H15NO2,6,15,1,2,0,0,0,0,0,0,0
CC(C)CC[NH3+].O=C[O-],C0603_A0024,A132065,47,320.15,C6H15NO2,6,15,1,2,0,0,0,0,0,0,0
C[N+](C)(C)CCCS(=O)(=O)O.O=S(=O)([O-])O,C0488_A0017,A132065,-12,261.15,C6H17NO7S2,6,17,1,7,2,0,0,0,0,0,0
CC[N+](CC)(CC)CCCS(=O)(=O)O.O=S(=O)([O-])O,C0157_A0017,A132065,-9,264.15,C9H23NO7S2,9,23,1,7,2,0,0,0,0,0,0
CCCC[N+](CCCC)(CCCC)CCCS(=O)(=O)O.O=S(=O)([O-])O,C0016_A0017,A132065,-7,266.15,C15H35NO7S2,15,35,1,7,2,0,0,0,0,0,0
CC[N+](CC)(CC)Cc1ccccc1.N#C[N-]C#N,C0695_A0056,A132065,83,356.15,C15H22N4,15,22,4,0,0,0,0,0,0,0,0
CC[N+](CC)(CC)Cc1ccccc1.O=S(=O)([O-])C(F)(F)F,C0695_A0084,A132065,109,382.15,C14H22F3NO3S,14,22,1,3,1,0,3,0,0,0,0
CC[N+](CC)(CC)Cc1ccccc1.O=C1[N-]S(=O)(=O)c2ccccc21,C0695_A0007,A132065,151,424.15,C20H26N2O3S,20,26,2,3,1,0,0,0,0,0,0
CC[N+](CC)(CC)Cc1ccccc1.N#C[S-],C0695_A0015,A132065,88,361.15,C14H22N2S,14,22,2,0,1,0,0,0,0,0,0
C[N+](C)(C)c1ccccc1.N#C[N-]C#N,C1056_A0056,A132065,117,390.15,C11H14N4,11,14,4,0,0,0,0,0,0,0,0
C[N+](C)(C)c1ccccc1.O=S(=O)([O-])C(F)(F)F,C1056_A0084,A132065,83,356.15,C10H14F3NO3S,10,14,1,3,1,0,3,0,0,0,0
C[N+](C)(C)c1ccccc1.Cc1ccc(S(=O)(=O)[O-])cc1,C1056_A0030,A132065,150,423.15,C16H21NO3S,16,21,1,3,1,0,0,0,0,0,0
C[N+](C)(C)c1ccccc1.O=C1[N-]S(=O)(=O)c2ccccc21,C1056_A0007,A132065,194,467.15,C16H18N2O3S,16,18,2,3,1,0,0,0,0,0,0
C[N+](C)(C)c1ccccc1.N#C[S-],C1056_A0015,A132065,116,389.15,C10H14N2S,10,14,2,0,1,0,0,0,0,0,0
CCCCCCCCCCCC[N+](CC)(CC)CC.O=S(=O)([N-]S(=O)(=O)C(F)(F)F)C(F)(F)F,C1115_A0048,A132065,7,280.15,C20H40F6N2O4S2,20,40,2,4,2,0,6,0,0,0,0
CC[N+](CC)(CC)COC.O=S(=O)([N-]S(=O)(=O)C(F)(F)F)C(F)(F)F,C0716_A0048,A132065,-3,270.15,C10H20F6N2O5S2,10,20,2,5,2,0,6,0,0,0,0
C[N+](C)(Cc1ccccc1)Cc1ccccc1.[Br-],C0542_A0004,A132065,175,448.15,C16H20BrN,16,20,1,0,0,0,0,0,1,0,0
C[N+](C)(Cc1ccccc1)Cc1ccccc1.F[B-](F)(F)F,C0542_A0020,A132065,166,439.15,C16H20BF4N,16,20,1,0,0,0,4,0,0,0,0
C[N+](C)(Cc1ccccc1)Cc1ccccc1.F[P-](F)(F)(F)(F)F,C0542_A0011,A132065,218,491.15,C16H20F6NP,16,20,1,0,0,1,6,0,0,0,0
Cc1ccccc1C[N+](C)(C)Cc1ccccc1C.F[B-](F)(F)F,C0205_A0020,A132065,231,504.15,C18H24BF4N,18,24,1,0,0,0,4,0,0,0,0
Cc1ccccc1C[N+](C)(C)Cc1ccccc1C.F[P-](F)(F)(F)(F)F,C0205_A0011,A132065,270,543.15,C18H24F6NP,18,24,1,0,0,1,6,0,0,0,0
Cc1cccc(C[N+](C)(C)Cc2cccc(C)c2)c1.[Cl-],C0035_A0033,A132065,149,422.15,C18H24ClN,18,24,1,0,0,0,0,1,0,0,0
Cc1cccc(C[N+](C)(C)Cc2cccc(C)c2)c1.F[B-](F)(F)F,C0035_A0020,A132065,163,436.15,C18H24BF4N,18,24,1,0,0,0,4,0,0,0,0
Cc1cccc(C[N+](C)(C)Cc2cccc(C)c2)c1.F[P-](F)(F)(F)(F)F,C0035_A0011,A132065,161,434.15,C18H24F6NP,18,24,1,0,0,1,6,0,0,0,0
Cc1ccc(C[N+](C)(C)Cc2ccc(C)cc2)cc1.[Br-],C1058_A0004,A132065,202,475.15,C18H24BrN,18,24,1,0,0,0,0,0,1,0,0
Cc1ccc(C[N+](C)(C)Cc2ccc(C)cc2)cc1.F[B-](F)(F)F,C1058_A0020,A132065,206,479.15,C18H24BF4N,18,24,1,0,0,0,4,0,0,0,0
Cc1ccc(C[N+](C)(C)Cc2ccc(C)cc2)cc1.F[P-](F)(F)(F)(F)F,C1058_A0011,A132065,218,491.15,C18H24F6NP,18,24,1,0,0,1,6,0,0,0,0
CCCC[N+](C)(C)CCCC.F[P-](F)(F)(F)(F)F,C0313_A0011,A132065,164,437.15,C10H24F6NP,10,24,1,0,0,1,6,0,0,0,0
CCCC[N+](C)=C(N(C)C)N(C)C.O=[N+]([O-])[O-],C0268_A0090,A132065,72,345.15,C10H24N4O3,10,24,4,3,0,0,0,0,0,0,0
CCCC[N+](C)=C(N(C)C)N(C)C.O=[N+]([O-])[N-][N+](=O)[O-],C0268_A0063,A132065,75,348.15,C10H24N6O4,10,24,6,4,0,0,0,0,0,0,0
Cn1cnn(C)c1=[N+](C)C.O=[N+]([O-])[O-],C0641_A0090,A132065,74,347.15,C6H13N5O3,6,13,5,3,0,0,0,0,0,0,0
C[NH+]=C1N(C)CCN1C.O=[N+]([O-])[O-],C0304_A0090,A132065,3,276.15,C6H14N4O3,6,14,4,3,0,0,0,0,0,0,0
CCC[NH+]=C1N(C)CCN1C.[O-][Cl+3]([O-])([O-])[O-],C1152_A0051,A132065,6,279.15,C8H18ClN3O4,8,18,3,4,0,0,0,1,0,0,0