IL_SMILES,NAME,ARTICLEID,IL-Tm (deg-C),IL-Tm (K),MolecularFormula,C,H,N,O,S,P,F,Cl,Br,I,Si
CCCCCCn1cc[n+](CCCCCC)c1.Cc1ccc(S(=O)(=O)[O-])cc1,,A138128,67.2,340.35,C22H36N2O3S,22,36,2,3,1,0,0,0,0,0,0
CCCCCCCCn1cc[n+](C)c1.Cc1ccc(S(=O)(=O)[O-])cc1,,A138128,97.2,370.35,C19H30N2O3S,19,30,2,3,1,0,0,0,0,0,0
CCCCC(CC)Cn1cc[n+](CC(CC)CCCC)c1.Cc1ccc(S(=O)(=O)[O-])cc1,,A138128,56.2,329.35,C26H44N2O3S,26,44,2,3,1,0,0,0,0,0,0
CCCCCCCCCCn1cc[n+](CCCCCCCCCC)c1.Cc1ccc(S(=O)(=O)[O-])cc1,,A138128,76.2,349.35,C30H52N2O3S,30,52,2,3,1,0,0,0,0,0,0
CCn1cc[n+](C)c1.O=S(=O)([O-])C(F)(F)C(F)(F)C(F)(F)C(F)(F)C(F)(F)C(F)(F)C(F)(F)C(F)(F)F,,A138128,94.7,367.85,C14H11F17N2O3S,14,11,2,3,1,0,17,0,0,0,0
CCCCCCCCS(=O)(=O)[O-].CCCC[N+](C)(C)C,,A138128,211,484.15,C15H35NO3S,15,35,1,3,1,0,0,0,0,0,0
CCCCCCCCS(=O)(=O)[O-].C[N+](C)(C)CCO,,A138128,117,390.15,C13H31NO4S,13,31,1,4,1,0,0,0,0,0,0
CCCCCCCCS(=O)(=O)[O-].CC[N+](C)(C)CCO,,A138128,47,320.15,C14H33NO4S,14,33,1,4,1,0,0,0,0,0,0
CCCCCC[n+]1ccn(C)c1.O=S(=O)([O-])C(F)(F)C(F)(F)C(F)(F)C(F)(F)F,,A138128,23.8,296.95,C14H19F9N2O3S,14,19,2,3,1,0,9,0,0,0,0
CCCCCCCCCCn1cc[n+](C)c1.O=S(=O)([O-])C(F)(F)C(F)(F)C(F)(F)C(F)(F)F,,A138128,34,307.15,C18H27F9N2O3S,18,27,2,3,1,0,9,0,0,0,0
CCCCCCCC[n+]1ccccc1.O=S(=O)([O-])C(F)(F)C(F)(F)C(F)(F)C(F)(F)F,,A138128,73.2,346.35,C17H22F9NO3S,17,22,1,3,1,0,9,0,0,0,0
CCCCCCCC[n+]1ccccc1C.O=S(=O)([O-])C(F)(F)C(F)(F)C(F)(F)C(F)(F)F,,A138128,78.2,351.35,C18H24F9NO3S,18,24,1,3,1,0,9,0,0,0,0
CCCCCCCC[n+]1ccc(C)cc1.O=S(=O)([O-])C(F)(F)C(F)(F)C(F)(F)C(F)(F)F,,A138128,68.2,341.35,C18H24F9NO3S,18,24,1,3,1,0,9,0,0,0,0
CCCCS(=O)(=O)[O-].CCn1cc[n+](C)c1,,A138128,4.2,277.35,C10H20N2O3S,10,20,2,3,1,0,0,0,0,0,0
CCCCS(=O)(=O)[O-].CCCC[N+](C)(C)C,,A138128,62,335.15,C11H27NO3S,11,27,1,3,1,0,0,0,0,0,0
CCCCS(=O)(=O)[O-].C[N+](C)(C)CCO,,A138128,51,324.15,C9H23NO4S,9,23,1,4,1,0,0,0,0,0,0
CCCCS(=O)(=O)[O-].CC[N+](C)(C)CCO,,A138128,20,293.15,C10H25NO4S,10,25,1,4,1,0,0,0,0,0,0
CCn1cc[n+](C)c1.O=S(=O)([O-])C(F)(F)C(F)(F)F,,A138128,-64.8,208.35,C8H11F5N2O3S,8,11,2,3,1,0,5,0,0,0,0
CCS(=O)(=O)[O-].CCn1cc[n+](C)c1,,A138128,29.2,302.35,C8H16N2O3S,8,16,2,3,1,0,0,0,0,0,0
CCCCn1cc[nH+]c1.CS(=O)(=O)[O-],,A138128,70.2,343.35,C8H16N2O3S,8,16,2,3,1,0,0,0,0,0,0
CCCCCCn1cc[nH+]c1.CS(=O)(=O)[O-],,A138128,59.2,332.35,C10H20N2O3S,10,20,2,3,1,0,0,0,0,0,0
CC[NH+](C)C.CS(=O)(=O)[O-],,A138128,94.9,368.05,C5H15NO3S,5,15,1,3,1,0,0,0,0,0,0
CC[NH+](C)CC.CS(=O)(=O)[O-],,A138128,29.2,302.35,C6H17NO3S,6,17,1,3,1,0,0,0,0,0,0
CCCC[N+](C)(C)C.CS(=O)(=O)[O-],,A138128,169,442.15,C8H21NO3S,8,21,1,3,1,0,0,0,0,0,0
CS(=O)(=O)[O-].C[N+](C)(C)CCO,,A138128,120,393.15,C6H17NO4S,6,17,1,4,1,0,0,0,0,0,0
CC[N+](C)(C)CCO.CS(=O)(=O)[O-],,A138128,44,317.15,C7H19NO4S,7,19,1,4,1,0,0,0,0,0,0
COCC[NH3+].CS(=O)(=O)[O-],,A138128,62.8,335.95,C4H13NO4S,4,13,1,4,1,0,0,0,0,0,0
CCCCCCOC(=O)C[N+](C)(C)C.CS(=O)(=O)[O-],,A138128,103.2,376.35,C12H27NO5S,12,27,1,5,1,0,0,0,0,0,0
CCCCCCCCCCCCOC(=O)C[N+](C)(C)C.CS(=O)(=O)[O-],,A138128,104.2,377.35,C18H39NO5S,18,39,1,5,1,0,0,0,0,0,0
CCCCCCCCCCCCCCOC(=O)C[N+](C)(C)C.CS(=O)(=O)[O-],,A138128,104.2,377.35,C20H43NO5S,20,43,1,5,1,0,0,0,0,0,0
CCCCCCCCCCCCCCCCOC(=O)C[N+](C)(C)C.CS(=O)(=O)[O-],,A138128,105.2,378.35,C22H47NO5S,22,47,1,5,1,0,0,0,0,0,0
CCC(C)[NH3+].N#C[S-],,A138128,22.7,295.85,C5H12N2S,5,12,2,0,1,0,0,0,0,0,0
CC[P+](CC)(CC)CC.N#Cc1ccc[n-]1,,A138128,9,282.15,C13H23N2P,13,23,2,0,0,1,0,0,0,0,0
CCCC[P+](CC)(CC)CC.N#Cc1ccc[n-]1,,A138128,39,312.15,C15H27N2P,15,27,2,0,0,1,0,0,0,0,0
CCCCCCCCCCCC[P+](CC)(CC)CC.N#Cc1ccc[n-]1,,A138128,-58,215.15,C23H43N2P,23,43,2,0,0,1,0,0,0,0,0
CCCCCCCCCCCCCCCCCC[P+](CCCC)(CCCC)CCCC.N#Cc1ccc[n-]1,,A138128,5,278.15,C35H67N2P,35,67,2,0,0,1,0,0,0,0,0
CCCC[P+](C)(CCCC)CCCC.COP(=O)([O-])OC,,A138128,17,290.15,C15H36O4P2,15,36,0,4,0,2,0,0,0,0,0
Cn1cc[n+](C)c1.F[P-](F)(F)(F)(F)F,,A138128,115.2,388.35,C5H9F6N2P,5,9,2,0,0,1,6,0,0,0,0
Cc1n(C)cc[n+]1CCCC#N.F[P-](F)(F)(F)(F)F,,A138128,90.7,363.85,C9H14F6N3P,9,14,3,0,0,1,6,0,0,0,0
CC[n+]1ccccc1C#N.F[P-](F)(F)(F)(F)F,,A138128,165.2,438.35,C8H9F6N2P,8,9,2,0,0,1,6,0,0,0,0
CC[n+]1cccc(C#N)c1.F[P-](F)(F)(F)(F)F,,A138128,165.7,438.85,C8H9F6N2P,8,9,2,0,0,1,6,0,0,0,0
CC[n+]1ccc(C#N)cc1.F[P-](F)(F)(F)(F)F,,A138128,176.2,449.35,C8H9F6N2P,8,9,2,0,0,1,6,0,0,0,0
CCCC[n+]1ccc(C#N)cc1.F[P-](F)(F)(F)(F)F,,A138128,140.2,413.35,C10H13F6N2P,10,13,2,0,0,1,6,0,0,0,0
CCCC[n+]1cccc(C#N)c1.F[P-](F)(F)(F)(F)F,,A138128,110.7,383.85,C10H13F6N2P,10,13,2,0,0,1,6,0,0,0,0
CCCCCC[n+]1ccc(C#N)cc1.F[P-](F)(F)(F)(F)F,,A138128,115.2,388.35,C12H17F6N2P,12,17,2,0,0,1,6,0,0,0,0
CCCCCCCC[n+]1ccc(C#N)cc1.F[P-](F)(F)(F)(F)F,,A138128,123.2,396.35,C14H21F6N2P,14,21,2,0,0,1,6,0,0,0,0
C[N+](C)(C)CCCC#N.F[P-](F)(F)(F)(F)F,,A138128,162.7,435.85,C7H15F6N2P,7,15,2,0,0,1,6,0,0,0,0
CCCCCCCC[P+](CCCC)(CCCC)CCCC.F[P-](F)(F)(F)(F)F,,A138128,20.1,293.25,C20H44F6P2,20,44,0,0,0,2,6,0,0,0,0
CCCC[S+](C)C.F[P-](F)(F)(F)(F)F,,A138128,84.5,357.65,C6H15F6PS,6,15,0,0,1,1,6,0,0,0,0
CCCCCC[S+](C)C.F[P-](F)(F)(F)(F)F,,A138128,133.2,406.35,C8H19F6PS,8,19,0,0,1,1,6,0,0,0,0
CCCCn1cc[nH+]c1.O=S(=O)([O-])C(F)(F)F,,A138128,28.2,301.35,C8H13F3N2O3S,8,13,2,3,1,0,3,0,0,0,0
CCCCCCn1cc[nH+]c1.O=S(=O)([O-])C(F)(F)F,,A138128,18.2,291.35,C10H17F3N2O3S,10,17,2,3,1,0,3,0,0,0,0
CCn1cc[n+](CC)c1C.O=S(=O)([O-])C(F)(F)F,,A138128,113.2,386.35,C9H15F3N2O3S,9,15,2,3,1,0,3,0,0,0,0
CCCCCCCC[n+]1ccccc1.O=S(=O)([O-])C(F)(F)F,,A138128,49.2,322.35,C14H22F3NO3S,14,22,1,3,1,0,3,0,0,0,0
CCCCCCCC[n+]1ccccc1C.O=S(=O)([O-])C(F)(F)F,,A138128,40.2,313.35,C15H24F3NO3S,15,24,1,3,1,0,3,0,0,0,0
CCOC1=[N+](C)CCC1.O=S(=O)([O-])C(F)(F)F,,A138128,42.3,315.45,C8H14F3NO4S,8,14,1,4,1,0,3,0,0,0,0
CC[N+]1=C(OC)CCC1.O=S(=O)([O-])C(F)(F)F,,A138128,14.9,288.05,C8H14F3NO4S,8,14,1,4,1,0,3,0,0,0,0
CCOC1=[N+](CC)CCC1.O=S(=O)([O-])C(F)(F)F,,A138128,34.3,307.45,C9H16F3NO4S,9,16,1,4,1,0,3,0,0,0,0
CCOC1=[N+](C)CCCCC1.O=S(=O)([O-])C(F)(F)F,,A138128,40.3,313.45,C10H18F3NO4S,10,18,1,4,1,0,3,0,0,0,0
O=S(=O)([O-])C(F)(F)F.[NH3+]CCO,,A138128,75,348.15,C3H8F3NO4S,3,8,1,4,1,0,3,0,0,0,0
CC(C)(C)[NH3+].O=S(=O)([O-])C(F)(F)F,,A138128,11.8,284.95,C5H12F3NO3S,5,12,1,3,1,0,3,0,0,0,0
COC=[N+](C)C.O=S(=O)([O-])C(F)(F)F,,A138128,23.4,296.55,C5H10F3NO4S,5,10,1,4,1,0,3,0,0,0,0
CCOC=[N+](C)C.O=S(=O)([O-])C(F)(F)F,,A138128,5.2,278.35,C6H12F3NO4S,6,12,1,4,1,0,3,0,0,0,0
CCOC(C)=[N+](C)C.O=S(=O)([O-])C(F)(F)F,,A138128,77.2,350.35,C7H14F3NO4S,7,14,1,4,1,0,3,0,0,0,0
CCOC(C)=[N+](CC)CC.O=S(=O)([O-])C(F)(F)F,,A138128,48.7,321.85,C9H18F3NO4S,9,18,1,4,1,0,3,0,0,0,0
CCCCCC[N+]1(C)CCCCCC1.O=S(=O)([O-])C(F)(F)F,,A138128,98.2,371.35,C14H28F3NO3S,14,28,1,3,1,0,3,0,0,0,0
COCC[N+]1(C)CCCCCC1.O=S(=O)([O-])C(F)(F)F,,A138128,16.2,289.35,C11H22F3NO4S,11,22,1,4,1,0,3,0,0,0,0
COCCOCC[N+]1(C)CCCCCC1.O=S(=O)([O-])C(F)(F)F,,A138128,32.2,305.35,C13H26F3NO5S,13,26,1,5,1,0,3,0,0,0,0
CCCn1cc[n+](CCC)c1.O=S(=O)([N-]S(=O)(=O)C(F)(F)F)C(F)(F)F,,A138128,10.9,284.05,C11H17F6N3O4S2,11,17,3,4,2,0,6,0,0,0,0
CCCCn1cc[n+](C)c1C.O=S(=O)([N-]S(=O)(=O)C(F)(F)F)C(F)(F)F,,A138128,-12.8,260.35,C11H17F6N3O4S2,11,17,3,4,2,0,6,0,0,0,0
COCC[n+]1ccn(C)c1C.O=S(=O)([N-]S(=O)(=O)C(F)(F)F)C(F)(F)F,,A138128,-30.8,242.35,C10H15F6N3O5S2,10,15,3,5,2,0,6,0,0,0,0
CCc1n(CC)cc[n+]1CCOC.O=S(=O)([N-]S(=O)(=O)C(F)(F)F)C(F)(F)F,,A138128,5.5,278.65,C12H19F6N3O5S2,12,19,3,5,2,0,6,0,0,0,0
CCCn1cc[n+](CCOC)c1C.O=S(=O)([N-]S(=O)(=O)C(F)(F)F)C(F)(F)F,,A138128,20.4,293.55,C12H19F6N3O5S2,12,19,3,5,2,0,6,0,0,0,0
CCCn1cc[n+](CCOC)c1CC.O=S(=O)([N-]S(=O)(=O)C(F)(F)F)C(F)(F)F,,A138128,15.8,288.95,C13H21F6N3O5S2,13,21,3,5,2,0,6,0,0,0,0
CCCCn1cc[n+](CCOC)c1CC.O=S(=O)([N-]S(=O)(=O)C(F)(F)F)C(F)(F)F,,A138128,13.7,286.85,C14H23F6N3O5S2,14,23,3,5,2,0,6,0,0,0,0
CCCCCn1cc[n+](CCOC)c1C.O=S(=O)([N-]S(=O)(=O)C(F)(F)F)C(F)(F)F,,A138128,16,289.15,C14H23F6N3O5S2,14,23,3,5,2,0,6,0,0,0,0
CCCCCn1cc[n+](CCOC)c1CC.O=S(=O)([N-]S(=O)(=O)C(F)(F)F)C(F)(F)F,,A138128,5.4,278.55,C15H25F6N3O5S2,15,25,3,5,2,0,6,0,0,0,0
COCCn1cc[n+](CCOC)c1C.O=S(=O)([N-]S(=O)(=O)C(F)(F)F)C(F)(F)F,,A138128,58.3,331.45,C12H19F6N3O6S2,12,19,3,6,2,0,6,0,0,0,0
CCc1n(CCOC)cc[n+]1CCOC.O=S(=O)([N-]S(=O)(=O)C(F)(F)F)C(F)(F)F,,A138128,8,281.15,C13H21F6N3O6S2,13,21,3,6,2,0,6,0,0,0,0
CCOCC[n+]1ccn(CCOC)c1C.O=S(=O)([N-]S(=O)(=O)C(F)(F)F)C(F)(F)F,,A138128,1.5,274.65,C13H21F6N3O6S2,13,21,3,6,2,0,6,0,0,0,0
CCOCc1n(C)cc[n+]1C.O=S(=O)([N-]S(=O)(=O)C(F)(F)F)C(F)(F)F,,A138128,7.7,280.85,C10H15F6N3O5S2,10,15,3,5,2,0,6,0,0,0,0
CCCOCc1n(C)cc[n+]1C.O=S(=O)([N-]S(=O)(=O)C(F)(F)F)C(F)(F)F,,A138128,5.3,278.45,C11H17F6N3O5S2,11,17,3,5,2,0,6,0,0,0,0
COC[n+]1ccn(C)c1C.O=S(=O)([N-]S(=O)(=O)C(F)(F)F)C(F)(F)F,,A138128,22.2,295.35,C9H13F6N3O5S2,9,13,3,5,2,0,6,0,0,0,0
CCc1n(C)cc[n+]1COC.O=S(=O)([N-]S(=O)(=O)C(F)(F)F)C(F)(F)F,,A138128,14.2,287.35,C10H15F6N3O5S2,10,15,3,5,2,0,6,0,0,0,0
CCc1n(CC)cc[n+]1COC.O=S(=O)([N-]S(=O)(=O)C(F)(F)F)C(F)(F)F,,A138128,19.2,292.35,C11H17F6N3O5S2,11,17,3,5,2,0,6,0,0,0,0
CCCn1cc[n+](COC)c1C.O=S(=O)([N-]S(=O)(=O)C(F)(F)F)C(F)(F)F,,A138128,21.2,294.35,C11H17F6N3O5S2,11,17,3,5,2,0,6,0,0,0,0
CCn1cc[n+](C)c1SC.O=S(=O)([N-]S(=O)(=O)C(F)(F)F)C(F)(F)F,,A138128,-12.8,260.35,C9H13F6N3O4S3,9,13,3,4,3,0,6,0,0,0,0
CCn1cc[n+](C)c1SC(C)C.O=S(=O)([N-]S(=O)(=O)C(F)(F)F)C(F)(F)F,,A138128,11.2,284.35,C11H17F6N3O4S3,11,17,3,4,3,0,6,0,0,0,0
Cc1n(C)cc[n+]1C[Si](C)(C)C.O=S(=O)([N-]S(=O)(=O)C(F)(F)F)C(F)(F)F,,A138128,41.7,314.85,C11H19F6N3O4S2Si,11,19,3,4,2,0,6,0,0,0,1
CCC[n+]1c(C)cc(C)n1C.O=S(=O)([N-]S(=O)(=O)C(F)(F)F)C(F)(F)F,,A138128,17.2,290.35,C11H17F6N3O4S2,11,17,3,4,2,0,6,0,0,0,0
CCCCCCCCn1cc[n+](C)n1.O=S(=O)([N-]S(=O)(=O)C(F)(F)F)C(F)(F)F,,A138128,-24.5,248.65,C13H22F6N4O4S2,13,22,4,4,2,0,6,0,0,0,0
CCCCCCCCCCn1cc[n+](C)n1.O=S(=O)([N-]S(=O)(=O)C(F)(F)F)C(F)(F)F,,A138128,1.8,274.95,C15H26F6N4O4S2,15,26,4,4,2,0,6,0,0,0,0
CCCCCCCCCCCCn1cc[n+](C)n1.O=S(=O)([N-]S(=O)(=O)C(F)(F)F)C(F)(F)F,,A138128,17.6,290.75,C17H30F6N4O4S2,17,30,4,4,2,0,6,0,0,0,0
C[n+]1nn(Cc2ccccc2)cc1-c1ccccc1.O=S(=O)([N-]S(=O)(=O)C(F)(F)F)C(F)(F)F,,A138128,81.2,354.35,C18H16F6N4O4S2,18,16,4,4,2,0,6,0,0,0,0
CCCCCCc1cn(-c2ccccc2)n[n+]1C.O=S(=O)([N-]S(=O)(=O)C(F)(F)F)C(F)(F)F,,A138128,71.2,344.35,C17H22F6N4O4S2,17,22,4,4,2,0,6,0,0,0,0
CCCCCCCCCCn1c[n+](C)cn1.O=S(=O)([N-]S(=O)(=O)C(F)(F)F)C(F)(F)F,,A138128,3.1,276.25,C15H26F6N4O4S2,15,26,4,4,2,0,6,0,0,0,0
CCCCCCCCCCCCn1c[n+](C)cn1.O=S(=O)([N-]S(=O)(=O)C(F)(F)F)C(F)(F)F,,A138128,20,293.15,C17H30F6N4O4S2,17,30,4,4,2,0,6,0,0,0,0
CCCCCCC[n+]1ccccc1.O=S(=O)([N-]S(=O)(=O)C(F)(F)F)C(F)(F)F,,A138128,-1,272.15,C14H20F6N2O4S2,14,20,2,4,2,0,6,0,0,0,0
CCCCCCCC[n+]1ccccc1.O=S(=O)([N-]S(=O)(=O)C(F)(F)F)C(F)(F)F,,A138128,-11.8,261.35,C15H22F6N2O4S2,15,22,2,4,2,0,6,0,0,0,0
CCCCCCCCCC[n+]1ccccc1.O=S(=O)([N-]S(=O)(=O)C(F)(F)F)C(F)(F)F,,A138128,1,274.15,C17H26F6N2O4S2,17,26,2,4,2,0,6,0,0,0,0
O=S(=O)([N-]S(=O)(=O)C(F)(F)F)C(F)(F)F.c1ccc(C[n+]2ccccc2)cc1,,A138128,6.6,279.75,C14H12F6N2O4S2,14,12,2,4,2,0,6,0,0,0,0
O=S(=O)([N-]S(=O)(=O)C(F)(F)F)C(F)(F)F.c1cc[n+](CC2CCCCC2)cc1,,A138128,41.9,315.05,C14H18F6N2O4S2,14,18,2,4,2,0,6,0,0,0,0
CCC[n+]1cccc(C)c1.O=S(=O)([N-]S(=O)(=O)C(F)(F)F)C(F)(F)F,,A138128,0.2,273.35,C11H14F6N2O4S2,11,14,2,4,2,0,6,0,0,0,0
CCCCCCCC[n+]1ccc(C)cc1.O=S(=O)([N-]S(=O)(=O)C(F)(F)F)C(F)(F)F,,A138128,7.2,280.35,C16H24F6N2O4S2,16,24,2,4,2,0,6,0,0,0,0
CC[n+]1ccccc1C#N.O=S(=O)([N-]S(=O)(=O)C(F)(F)F)C(F)(F)F,,A138128,37.2,310.35,C10H9F6N3O4S2,10,9,3,4,2,0,6,0,0,0,0
CC[n+]1cccc(C#N)c1.O=S(=O)([N-]S(=O)(=O)C(F)(F)F)C(F)(F)F,,A138128,73.2,346.35,C10H9F6N3O4S2,10,9,3,4,2,0,6,0,0,0,0
CC[n+]1ccc(C#N)cc1.O=S(=O)([N-]S(=O)(=O)C(F)(F)F)C(F)(F)F,,A138128,34.2,307.35,C10H9F6N3O4S2,10,9,3,4,2,0,6,0,0,0,0
CCCCCC[n+]1ccc(C#N)cc1.O=S(=O)([N-]S(=O)(=O)C(F)(F)F)C(F)(F)F,,A138128,8.7,281.85,C14H17F6N3O4S2,14,17,3,4,2,0,6,0,0,0,0
CCCCCCCC[n+]1cccc(C#N)c1.O=S(=O)([N-]S(=O)(=O)C(F)(F)F)C(F)(F)F,,A138128,14.9,288.05,C16H21F6N3O4S2,16,21,3,4,2,0,6,0,0,0,0
CCCCCCCC[n+]1ccc(C#N)cc1.O=S(=O)([N-]S(=O)(=O)C(F)(F)F)C(F)(F)F,,A138128,30.2,303.35,C16H21F6N3O4S2,16,21,3,4,2,0,6,0,0,0,0
CC[n+]1ccc(C(F)(F)F)cc1.O=S(=O)([N-]S(=O)(=O)C(F)(F)F)C(F)(F)F,,A138128,29.7,302.85,C10H9F9N2O4S2,10,9,2,4,2,0,9,0,0,0,0
CCCC[n+]1ccc2ccccc2c1.O=S(=O)([N-]S(=O)(=O)C(F)(F)F)C(F)(F)F,,A138128,48,321.15,C15H16F6N2O4S2,15,16,2,4,2,0,6,0,0,0,0
CCOC1=[N+](C)CCC1.O=S(=O)([N-]S(=O)(=O)C(F)(F)F)C(F)(F)F,,A138128,38.6,311.75,C9H14F6N2O5S2,9,14,2,5,2,0,6,0,0,0,0
CC[N+]1=C(OC)CCC1.O=S(=O)([N-]S(=O)(=O)C(F)(F)F)C(F)(F)F,,A138128,39.6,312.75,C9H14F6N2O5S2,9,14,2,5,2,0,6,0,0,0,0
CCOC1=[N+](CC)CCC1.O=S(=O)([N-]S(=O)(=O)C(F)(F)F)C(F)(F)F,,A138128,29.2,302.35,C10H16F6N2O5S2,10,16,2,5,2,0,6,0,0,0,0
CCOC1=[N+](C)CCCCC1.O=S(=O)([N-]S(=O)(=O)C(F)(F)F)C(F)(F)F,,A138128,44.6,317.75,C11H18F6N2O5S2,11,18,2,5,2,0,6,0,0,0,0
CCC[N+](C)(CC)CCC.O=S(=O)([N-]S(=O)(=O)C(F)(F)F)C(F)(F)F,,A138128,22.2,295.35,C11H22F6N2O4S2,11,22,2,4,2,0,6,0,0,0,0
CCCC[N+](C)(C)C(C)C.O=S(=O)([N-]S(=O)(=O)C(F)(F)F)C(F)(F)F,,A138128,10,283.15,C11H22F6N2O4S2,11,22,2,4,2,0,6,0,0,0,0
CCCC[N+](C)(CCCC)CCCC.O=S(=O)([N-]S(=O)(=O)C(F)(F)F)C(F)(F)F,,A138128,27,300.15,C15H30F6N2O4S2,15,30,2,4,2,0,6,0,0,0,0
CCCCCCCCCC[N+](CC)(CC)CC.O=S(=O)([N-]S(=O)(=O)C(F)(F)F)C(F)(F)F,,A138128,-9,264.15,C18H36F6N2O4S2,18,36,2,4,2,0,6,0,0,0,0
CCCCCCCCCC[N+](C)(C)C(C)C.O=S(=O)([N-]S(=O)(=O)C(F)(F)F)C(F)(F)F,,A138128,-3,270.15,C17H34F6N2O4S2,17,34,2,4,2,0,6,0,0,0,0
CCCCCCCCCCCCCC[N+](CC)(CC)CC.O=S(=O)([N-]S(=O)(=O)C(F)(F)F)C(F)(F)F,,A138128,21.3,294.45,C22H44F6N2O4S2,22,44,2,4,2,0,6,0,0,0,0
CC[N+](CC)(CC)Cc1ccccc1.O=S(=O)([N-]S(=O)(=O)C(F)(F)F)C(F)(F)F,,A138128,41.2,314.35,C15H22F6N2O4S2,15,22,2,4,2,0,6,0,0,0,0
CC[N+](CC)(CC)CCOC.O=S(=O)([N-]S(=O)(=O)C(F)(F)F)C(F)(F)F,,A138128,20.2,293.35,C11H22F6N2O5S2,11,22,2,5,2,0,6,0,0,0,0
CCOCC[N+](CC)(CC)CC.O=S(=O)([N-]S(=O)(=O)C(F)(F)F)C(F)(F)F,,A138128,6.9,280.05,C12H24F6N2O5S2,12,24,2,5,2,0,6,0,0,0,0
CCCC[N+](CCCC)(CCCC)CCOCC.O=S(=O)([N-]S(=O)(=O)C(F)(F)F)C(F)(F)F,,A138128,10.25,283.4,C18H36F6N2O5S2,18,36,2,5,2,0,6,0,0,0,0
CCCCCCCCCC(=O)OCC[N+](C)(C)COC1CCCCCCCCCCC1.O=S(=O)([N-]S(=O)(=O)C(F)(F)F)C(F)(F)F,,A138128,25.4,298.55,C29H54F6N2O7S2,29,54,2,7,2,0,6,0,0,0,0
C[N+](C)(C)CCCC#N.O=S(=O)([N-]S(=O)(=O)C(F)(F)F)C(F)(F)F,,A138128,58.3,331.45,C9H15F6N3O4S2,9,15,3,4,2,0,6,0,0,0,0
COC=[N+](C)C.O=S(=O)([N-]S(=O)(=O)C(F)(F)F)C(F)(F)F,,A138128,37.8,310.95,C6H10F6N2O5S2,6,10,2,5,2,0,6,0,0,0,0
CCOC=[N+](C)C.O=S(=O)([N-]S(=O)(=O)C(F)(F)F)C(F)(F)F,,A138128,40.25,313.4,C7H12F6N2O5S2,7,12,2,5,2,0,6,0,0,0,0
CCOC(C)=[N+](C)C.O=S(=O)([N-]S(=O)(=O)C(F)(F)F)C(F)(F)F,,A138128,33.3,306.45,C8H14F6N2O5S2,8,14,2,5,2,0,6,0,0,0,0
CCOC(C)=[N+](CC)CC.O=S(=O)([N-]S(=O)(=O)C(F)(F)F)C(F)(F)F,,A138128,54,327.15,C10H18F6N2O5S2,10,18,2,5,2,0,6,0,0,0,0
C1CC[NH2+]C1.O=S(=O)([N-]S(=O)(=O)C(F)(F)F)C(F)(F)F,,A138128,37.2,310.35,C6H10F6N2O4S2,6,10,2,4,2,0,6,0,0,0,0
C[NH+]1CCCC1.O=S(=O)([N-]S(=O)(=O)C(F)(F)F)C(F)(F)F,,A138128,83.2,356.35,C7H12F6N2O4S2,7,12,2,4,2,0,6,0,0,0,0
CC(C)C[N+]1(C)CCCC1.O=S(=O)([N-]S(=O)(=O)C(F)(F)F)C(F)(F)F,,A138128,3.733,276.883,C11H20F6N2O4S2,11,20,2,4,2,0,6,0,0,0,0
CCCC[N+]1(CC)CCCC1.O=S(=O)([N-]S(=O)(=O)C(F)(F)F)C(F)(F)F,,A138128,-14.8,258.35,C12H22F6N2O4S2,12,22,2,4,2,0,6,0,0,0,0
CCCCCCC[N+]1(C)CCCC1.O=S(=O)([N-]S(=O)(=O)C(F)(F)F)C(F)(F)F,,A138128,13.85,287,C14H26F6N2O4S2,14,26,2,4,2,0,6,0,0,0,0
CCCCCCCC[N+]1(C)CCCC1.O=S(=O)([N-]S(=O)(=O)C(F)(F)F)C(F)(F)F,,A138128,-12.4,260.75,C15H28F6N2O4S2,15,28,2,4,2,0,6,0,0,0,0
CCCCCCCCCC[N+]1(C)CCCC1.O=S(=O)([N-]S(=O)(=O)C(F)(F)F)C(F)(F)F,,A138128,10.5,283.65,C17H32F6N2O4S2,17,32,2,4,2,0,6,0,0,0,0
C=CC[N+]1(C)CCCC1.O=S(=O)([N-]S(=O)(=O)C(F)(F)F)C(F)(F)F,,A138128,11.2,284.35,C10H16F6N2O4S2,10,16,2,4,2,0,6,0,0,0,0
C[N+]1(CC2CCCCC2)CCCC1.O=S(=O)([N-]S(=O)(=O)C(F)(F)F)C(F)(F)F,,A138128,10.7,283.85,C14H24F6N2O4S2,14,24,2,4,2,0,6,0,0,0,0
CCCC[N+]1(C)CCCCC1.O=S(=O)([N-]S(=O)(=O)C(F)(F)F)C(F)(F)F,,A138128,-24.8,248.35,C12H22F6N2O4S2,12,22,2,4,2,0,6,0,0,0,0
CC(C)C[N+]1(C)CCCCC1.O=S(=O)([N-]S(=O)(=O)C(F)(F)F)C(F)(F)F,,A138128,14.9,288.05,C12H22F6N2O4S2,12,22,2,4,2,0,6,0,0,0,0
CCCC[N+]1(CC)CCCCC1.O=S(=O)([N-]S(=O)(=O)C(F)(F)F)C(F)(F)F,,A138128,6.8,279.95,C13H24F6N2O4S2,13,24,2,4,2,0,6,0,0,0,0
C=CC[N+]1(C)CCCCC1.O=S(=O)([N-]S(=O)(=O)C(F)(F)F)C(F)(F)F,,A138128,9.2,282.35,C11H18F6N2O4S2,11,18,2,4,2,0,6,0,0,0,0
CCCCCC[N+]1(C)CCCCCC1.O=S(=O)([N-]S(=O)(=O)C(F)(F)F)C(F)(F)F,,A138128,-20.8,252.35,C15H28F6N2O4S2,15,28,2,4,2,0,6,0,0,0,0
C=CC[N+]1(C)CCOCC1.O=S(=O)([N-]S(=O)(=O)C(F)(F)F)C(F)(F)F,,A138128,44.2,317.35,C10H16F6N2O5S2,10,16,2,5,2,0,6,0,0,0,0
C=CC[N+]1(CC)CCOCC1.O=S(=O)([N-]S(=O)(=O)C(F)(F)F)C(F)(F)F,,A138128,42.2,315.35,C11H18F6N2O5S2,11,18,2,5,2,0,6,0,0,0,0
CN(C)C(N(C)C)=[N+](C)C.O=S(=O)([N-]S(=O)(=O)C(F)(F)F)C(F)(F)F,,A138128,87.1,360.25,C9H18F6N4O4S2,9,18,4,4,2,0,6,0,0,0,0
CCN(C)C(N(C)C)=[N+](C)C.O=S(=O)([N-]S(=O)(=O)C(F)(F)F)C(F)(F)F,,A138128,18.4,291.55,C10H20F6N4O4S2,10,20,4,4,2,0,6,0,0,0,0
CCN(CC)C(N(C)C)=[N+](C)C.O=S(=O)([N-]S(=O)(=O)C(F)(F)F)C(F)(F)F,,A138128,10.1,283.25,C11H22F6N4O4S2,11,22,4,4,2,0,6,0,0,0,0
CCCN(C)C(N(C)C)=[N+](C)C.O=S(=O)([N-]S(=O)(=O)C(F)(F)F)C(F)(F)F,,A138128,0.6,273.75,C11H22F6N4O4S2,11,22,4,4,2,0,6,0,0,0,0
CCCN(CC)C(N(C)C)=[N+](C)C.O=S(=O)([N-]S(=O)(=O)C(F)(F)F)C(F)(F)F,,A138128,-1.4,271.75,C12H24F6N4O4S2,12,24,4,4,2,0,6,0,0,0,0
CCCN(CCC)C(N(C)C)=[N+](C)C.O=S(=O)([N-]S(=O)(=O)C(F)(F)F)C(F)(F)F,,A138128,13.1,286.25,C13H26F6N4O4S2,13,26,4,4,2,0,6,0,0,0,0
CCOCCN(C)C(N(C)CCOC)=[N+](C)C.O=S(=O)([N-]S(=O)(=O)C(F)(F)F)C(F)(F)F,,A138128,8.6,281.75,C14H28F6N4O6S2,14,28,4,6,2,0,6,0,0,0,0
CC[N+](C)=C1N(C)CCN1C.O=S(=O)([N-]S(=O)(=O)C(F)(F)F)C(F)(F)F,,A138128,-9.1,264.05,C10H18F6N4O4S2,10,18,4,4,2,0,6,0,0,0,0
CC[N+](CC)=C1N(C)CCN1C.O=S(=O)([N-]S(=O)(=O)C(F)(F)F)C(F)(F)F,,A138128,24.1,297.25,C11H20F6N4O4S2,11,20,4,4,2,0,6,0,0,0,0
CCCC[P+](C)(CCCC)CCCC.O=S(=O)([N-]S(=O)(=O)C(F)(F)F)C(F)(F)F,,A138128,16.6,289.75,C15H30F6NO4PS2,15,30,1,4,2,1,6,0,0,0,0
C=CC[P+](CCCC)(CCCC)CCCC.O=S(=O)([N-]S(=O)(=O)C(F)(F)F)C(F)(F)F,,A138128,29.1,302.25,C17H32F6NO4PS2,17,32,1,4,2,1,6,0,0,0,0
C=CCCC[P+](CC)(CC)CC.O=S(=O)([N-]S(=O)(=O)C(F)(F)F)C(F)(F)F,,A138128,12.2,285.35,C13H24F6NO4PS2,13,24,1,4,2,1,6,0,0,0,0
CCCCCCCC[P+](CCCCCCCC)(CCCCCCCC)CCCCCCCC.O=S(=O)([N-]S(=O)(=O)C(F)(F)F)C(F)(F)F,,A138128,11.3,284.45,C34H68F6NO4PS2,34,68,1,4,2,1,6,0,0,0,0
CCCCCCCCCCCC[P+](CCCC)(CCCC)CCCC.O=S(=O)([N-]S(=O)(=O)C(F)(F)F)C(F)(F)F,,A138128,13.6,286.75,C26H52F6NO4PS2,26,52,1,4,2,1,6,0,0,0,0
CCCC[P+]1(C)CCCCC1.O=S(=O)([N-]S(=O)(=O)C(F)(F)F)C(F)(F)F,,A138128,6.2,279.35,C12H22F6NO4PS2,12,22,1,4,2,1,6,0,0,0,0
CCCC[P+]1(C)CCCC1.O=S(=O)([N-]S(=O)(=O)C(F)(F)F)C(F)(F)F,,A138128,15.2,288.35,C11H20F6NO4PS2,11,20,1,4,2,1,6,0,0,0,0
CC[S+](C)C.O=S(=O)([N-]S(=O)(=O)C(F)(F)F)C(F)(F)F,,A138128,19.3,292.45,C6H11F6NO4S3,6,11,1,4,3,0,6,0,0,0,0
CCCC[S+](C)C.O=S(=O)([N-]S(=O)(=O)C(F)(F)F)C(F)(F)F,,A138128,-3.4,269.75,C8H15F6NO4S3,8,15,1,4,3,0,6,0,0,0,0
CCCC[S+](CC)CC.O=S(=O)([N-]S(=O)(=O)C(F)(F)F)C(F)(F)F,,A138128,-28.7,244.45,C10H19F6NO4S3,10,19,1,4,3,0,6,0,0,0,0
CCCCCC[S+](C)C.O=S(=O)([N-]S(=O)(=O)C(F)(F)F)C(F)(F)F,,A138128,43.7,316.85,C10H19F6NO4S3,10,19,1,4,3,0,6,0,0,0,0
C[S+]1CCCC1.O=S(=O)([N-]S(=O)(=O)C(F)(F)F)C(F)(F)F,,A138128,98.2,371.35,C7H11F6NO4S3,7,11,1,4,3,0,6,0,0,0,0
CC[S+]1CCCC1.O=S(=O)([N-]S(=O)(=O)C(F)(F)F)C(F)(F)F,,A138128,69.2,342.35,C8H13F6NO4S3,8,13,1,4,3,0,6,0,0,0,0
CCC[S+]1CCCC1.O=S(=O)([N-]S(=O)(=O)C(F)(F)F)C(F)(F)F,,A138128,26.2,299.35,C9H15F6NO4S3,9,15,1,4,3,0,6,0,0,0,0
CCC[S+]1CCCCC1.O=S(=O)([N-]S(=O)(=O)C(F)(F)F)C(F)(F)F,,A138128,30.2,303.35,C10H17F6NO4S3,10,17,1,4,3,0,6,0,0,0,0
CCN(C)c1c(N(C)C)[c+]1N(C)C.O=S(=O)([N-]S(=O)(=O)C(F)(F)F)C(F)(F)F,,A138128,63.2,336.35,C12H20F6N4O4S2,12,20,4,4,2,0,6,0,0,0,0
CCN(C)c1c(N(C)CC)[c+]1N(C)CC.O=S(=O)([N-]S(=O)(=O)C(F)(F)F)C(F)(F)F,,A138128,7.2,280.35,C14H24F6N4O4S2,14,24,4,4,2,0,6,0,0,0,0
CCN(CC)c1c(N(C)C)[c+]1N(C)C.O=S(=O)([N-]S(=O)(=O)C(F)(F)F)C(F)(F)F,,A138128,44.2,317.35,C13H22F6N4O4S2,13,22,4,4,2,0,6,0,0,0,0
CCN(CC)c1c(N(CC)CC)[c+]1N(C)C.O=S(=O)([N-]S(=O)(=O)C(F)(F)F)C(F)(F)F,,A138128,17.2,290.35,C15H26F6N4O4S2,15,26,4,4,2,0,6,0,0,0,0
CCN(CC)c1c(N(CC)CC)[c+]1N(CC)CC.O=S(=O)([N-]S(=O)(=O)C(F)(F)F)C(F)(F)F,,A138128,18.2,291.35,C17H30F6N4O4S2,17,30,4,4,2,0,6,0,0,0,0
CCCN(C)c1c(N(C)C)[c+]1N(C)C.O=S(=O)([N-]S(=O)(=O)C(F)(F)F)C(F)(F)F,,A138128,20.2,293.35,C13H22F6N4O4S2,13,22,4,4,2,0,6,0,0,0,0