IL_SMILES,NAME,ARTICLEID,IL-Tm (deg-C),IL-Tm (K),MolecularFormula,C,H,N,O,S,P,F,Cl,Br,I,Si
CC[N+]1(CCCC#N)CCCC1.[I-],,A135195,190,463.15,C10H19IN2,10,19,2,0,0,0,0,0,0,1,0
CC[n+]1ccn(-c2c(C)cc(C)cc2C)c1.[Br-],,A135195,191,464.15,C14H19BrN2,14,19,2,0,0,0,0,0,1,0,0
CC[N+](CC)(CC)Cc1ccccc1.[Br-],,A135195,195,468.15,C13H22BrN,13,22,1,0,0,0,0,0,1,0,0
O=C(O)C[n+]1cccc2ccccc21.[Cl-],,A135195,196,469.15,C11H10ClNO2,11,10,1,2,0,0,0,1,0,0,0
C=CC[N+](C)(C)c1ccc(C)cc1.[I-],,A135195,197,470.15,C12H18IN,12,18,1,0,0,0,0,0,0,1,0
Cn1cc[n+](C)c1P(c1ccccc1)c1ccccc1.[Cl-],,A135195,200,473.15,C17H18ClN2P,17,18,2,0,0,1,0,1,0,0,0
BrCCC[P+](c1ccccc1)(c1ccccc1)c1ccccc1.[Br-],,A135195,217,490.15,C21H21Br2P,21,21,0,0,0,1,0,0,2,0,0
[Cl-].c1ccc(C[P+](c2ccccc2)(c2ccccc2)c2ccccc2)cc1,,A135195,228,501.15,C25H22ClP,25,22,0,0,0,1,0,1,0,0,0
Cc1ccc(C[P+](c2ccccc2)(c2ccccc2)c2ccccc2)cc1.[Br-],,A135195,238,511.15,C26H24BrP,26,24,0,0,0,1,0,0,1,0,0
CCCC[N+]1(C)CCCCC1.[Br-],,A135195,240.66,513.81,C10H22BrN,10,22,1,0,0,0,0,0,1,0,0
NC(N)=[NH2+].O=S(=O)([O-])O,,A135195,101,374.15,CH7N3O4S,1,7,3,4,1,0,0,0,0,0,0
CC1CCC(C(C)C)C(OC(=O)C[n+]2cn(C)c3ccccc32)C1.F[P-](F)(F)(F)(F)F,,A135195,103,376.15,C20H29F6N2O2P,20,29,2,2,0,1,6,0,0,0,0
CCCCCCCCCCCCCCCCCCCC[N+]12CCN(CC1)CC2.[Br-],,A135195,103.5,376.65,C26H53BrN2,26,53,2,0,0,0,0,0,1,0,0
CCCCCCCOC(=O)C[N+](C)(C)C.[Br-],,A135195,104,377.15,C12H26BrNO2,12,26,1,2,0,0,0,0,1,0,0
CCCCCCCCCCOC(=O)C[N+](C)(C)C.[Br-],,A135195,104,377.15,C15H32BrNO2,15,32,1,2,0,0,0,0,1,0,0
CCCCCCCCCCn1cc[n+](-c2c(C)cc(C)cc2C)c1.[Br-],,A135195,105.5,378.65,C22H35BrN2,22,35,2,0,0,0,0,0,1,0,0
Cc1ccc([N+]#N)cc1.F[B-](F)(F)F,,A135195,105,378.15,C7H7BF4N2,7,7,2,0,0,0,4,0,0,0,0
CCCCCCCCCCOC(=O)C(Cc1ccccc1)NC(=O)C[n+]1ccccc1.[Br-],,A135195,106,379.15,C26H37BrN2O3,26,37,2,3,0,0,0,0,1,0,0
Cn1cc[n+](CCOc2ccccc2C=O)c1.[Br-],,A135195,107,380.15,C13H15BrN2O2,13,15,2,2,0,0,0,0,1,0,0
Cc1cc[n+](COC2CC(C)CCC2C(C)C)cc1.[Cl-],,A135195,107,380.15,C17H28ClNO,17,28,1,1,0,0,0,1,0,0,0
C1=C[NH+](Cc2ccccc2)C=N1.Cc1ccc(S(=O)(=O)[O-])cc1,,A135195,106,379.15,C17H18N2O3S,17,18,2,3,1,0,0,0,0,0,0
CC[S+](CC)CC.F[B-](F)(F)F,,A135195,110,383.15,C6H15BF4S,6,15,0,0,1,0,4,0,0,0,0
CC[N+](CC)(CC)CCCCBr.[Br-],,A135195,115,388.15,C10H23Br2N,10,23,1,0,0,0,0,0,2,0,0
CCCC[N+]1(CCCC)CCCCC1.Cc1ccc(S(=O)(=O)[O-])cc1,,A135195,111.5,384.65,C20H35NO3S,20,35,1,3,1,0,0,0,0,0,0
CCCC[N+](C)(C)C(C)CC(F)(F)F.[I-],,A135195,112.5,385.65,C10H21F3IN,10,21,1,0,0,0,3,0,0,1,0
F[B-](F)(F)F.N#[N+]c1ccccc1Oc1ccccc1,,A135195,112,385.15,C12H9BF4N2O,12,9,2,1,0,0,4,0,0,0,0
CC(C)(C)C(O)(CCc1ccc(Cl)cc1)C[NH+]1C=NC=N1.O=P([O-])(O)O,,A135195,112,385.15,C16H25ClN3O5P,16,25,3,5,0,1,0,1,0,0,0
CCCCCCCCCCNC(=O)CCCCC[n+]1ccccc1.[Br-],,A135195,113.5,386.65,C21H37BrN2O,21,37,2,1,0,0,0,0,1,0,0
CCCCC[N+]1(CCCCC)CCCCC1.Cc1ccc(S(=O)(=O)[O-])cc1,,A135195,114.5,387.65,C22H39NO3S,22,39,1,3,1,0,0,0,0,0,0
FC(F)(F)C(F)(F)[PH-](F)(F)(C(F)(F)C(F)(F)F)C(F)(F)C(F)(F)F.c1ccc([P+](c2ccccc2)(c2ccccc2)c2ccccc2)cc1,,A135195,115,388.15,C30H21F17P2,30,21,0,0,0,2,17,0,0,0,0
Cc1ccc(-[n+]2ccccc2)cc1.[Cl-],,A135195,116.1,389.25,C12H12ClN,12,12,1,0,0,0,0,1,0,0,0
CCCCCCCCCCCC[n+]1ccn(CCCCC(=O)OC2CNC(C(=O)O)C2)c1.F[B-](F)(F)F,,A135195,118,391.15,C25H44BF4N3O4,25,44,3,4,0,0,4,0,0,0,0
CCOC(=O)CCC[N+]1(C)CCCC1.[Br-],,A135195,118.5,391.65,C11H22BrNO2,11,22,1,2,0,0,0,0,1,0,0
CCCCCCCCCCCCNC(=O)CCCCC[n+]1ccccc1.[Br-],,A135195,118.5,391.65,C23H41BrN2O,23,41,2,1,0,0,0,0,1,0,0
COCCN(CCOC)C(=O)C[n+]1ccn(C)c1C.[Br-],,A135195,119.5,392.65,C13H24BrN3O3,13,24,3,3,0,0,0,0,1,0,0
C[N+](C)(C)C.FC(F)(F)[N-]C(F)(F)F,,A135195,122.5,395.65,C6H12F6N2,6,12,2,0,0,0,6,0,0,0,0
Cn1cc[n+](Cc2cc(=O)cc(-c3ccccc3)o2)c1.F[B-](F)(F)F,,A135195,123.5,396.65,C16H15BF4N2O2,16,15,2,2,0,0,4,0,0,0,0
CCCCCCC[n+]1ccc(-c2ccncc2)cc1.[Br-],,A135195,124.25,397.4,C17H23BrN2,17,23,2,0,0,0,0,0,1,0,0
CC[N+](CC)(CC)Cc1ccccc1.Cc1ccc(S(=O)(=O)[O-])cc1,,A135195,124.25,397.4,C20H29NO3S,20,29,1,3,1,0,0,0,0,0,0
C[N+](C)(N)N.O=[N+]([O-])[O-],,A135195,125.5,398.65,C2H10N4O3,2,10,4,3,0,0,0,0,0,0,0
F[B-](F)(F)F.Ic1ccc(C[n+]2ccccc2)cc1,,A135195,127.3,400.45,C12H11BF4IN,12,11,1,0,0,0,4,0,0,1,0
Cc1csc[n+]1C.[I-],,A135195,128.5,401.65,C5H8INS,5,8,1,0,1,0,0,0,0,1,0
F[B-](F)(F)F.O=C(C[n+]1cccc(C=Nc2ccc(F)cc2)c1)c1ccc([N+](=O)[O-])cc1,,A135195,129,402.15,C20H15BF5N3O3,20,15,3,3,0,0,5,0,0,0,0
CCOC(=O)C[n+]1ccn(C)c1C.[Br-],,A135195,130.5,403.65,C9H15BrN2O2,9,15,2,2,0,0,0,0,1,0,0
C[NH2+]C.[Br-],,A135195,133,406.15,C2H8BrN,2,8,1,0,0,0,0,0,1,0,0
CN1[NH2+]N(Cc2ccccc2)C=C1c1ccccc1.[I-],,A135195,134,407.15,C16H18IN3,16,18,3,0,0,0,0,0,0,1,0
F[P-](F)(F)(F)(F)F.c1ccc(Cn2cc[n+](Cn3nnc4ccccc43)c2)nc1,,A135195,135,408.15,C16H15F6N6P,16,15,6,0,0,1,6,0,0,0,0
CC[n+]1ccn2c1CCC2.[Br-],,A135195,136.5,409.65,C8H13BrN2,8,13,2,0,0,0,0,0,1,0,0
CCCC[n+]1cccc(C#N)c1.[I-],,A135195,137.75,410.9,C10H13IN2,10,13,2,0,0,0,0,0,0,1,0
Cc1n[n+](C)c(C)n1N.F[P-](F)(F)(F)(F)F,,A135195,144.5,417.65,C5H11F6N4P,5,11,4,0,0,1,6,0,0,0,0
C[N+](C)(C)CCCCCBr.[Br-],,A135195,145,418.15,C8H19Br2N,8,19,1,0,0,0,0,0,2,0,0
CSc1scc[n+]1C.[I-],,A135195,145.5,418.65,C5H8INS2,5,8,1,0,2,0,0,0,0,1,0
CC[n+]1csc2ccccc21.[I-],,A135195,146,419.15,C9H10INS,9,10,1,0,1,0,0,0,0,1,0
Cc1cc(C)c(N2CC[N+](c3c(C)cc(C)cc3C)=C2C(F)=C(F)F)c(C)c1.F[B-](F)(F)F,,A135195,149.5,422.65,C23H26BF7N2,23,26,2,0,0,0,7,0,0,0,0
COc1ccc(C(C)[P+](c2ccccc2)(c2ccccc2)c2ccccc2)c(OC)c1.F[B-](F)(F)F,,A135195,152,425.15,C28H28BF4O2P,28,28,0,2,0,1,4,0,0,0,0
Cn1ccc[n+]1C.[I-],,A135195,155,428.15,C5H9IN2,5,9,2,0,0,0,0,0,0,1,0
Fc1c(F)c(F)c(C[n+]2ccccc2)c(F)c1F.[Br-],,A135195,162.5,435.65,C12H7BrF5N,12,7,1,0,0,0,5,0,1,0,0
C[N+](C)(C)CCl.[Cl-],,A135195,165.5,438.65,C4H11Cl2N,4,11,1,0,0,0,0,2,0,0,0
N#Cc1cc(Cn2c[n+](CCC(=O)O)c3ccccc32)c([N+](=O)[O-])cc1C#N.[Br-],,A135195,167.5,440.65,C19H14BrN5O4,19,14,5,4,0,0,0,0,1,0,0
CC[P+](c1ccccc1)(c1ccccc1)c1ccccc1.[I-],,A135195,169.5,442.65,C20H20IP,20,20,0,0,0,1,0,0,0,1,0
COc1cc(C=NCCn2cc[n+](C)c2)ccc1O.F[P-](F)(F)(F)(F)F,,A135195,179,452.15,C14H18F6N3O2P,14,18,3,2,0,1,6,0,0,0,0
CCCCCCCCCCCCCCCC[N+](C)(C)CC.[Br-],,A135195,182,455.15,C20H44BrN,20,44,1,0,0,0,0,0,1,0,0
CCCCCCCCC=CCCCCCCCCOCCOCCOS(=O)(=O)[O-].CCCC[n+]1ccn(C)c1C,,A135195,-16.5,256.65,C31H60N2O6S,31,60,2,6,1,0,0,0,0,0,0
C[N+]1(C)CCC(OC(=O)C(O)(c2ccccc2)C2CCCC2)C1.[Br-],,A135195,192.5,465.65,C19H28BrNO3,19,28,1,3,0,0,0,0,1,0,0
C=CCSc1oc(-c2ccccc2)nc1[P+](c1ccccc1)(c1ccccc1)c1ccccc1.[I-],,A135195,199,472.15,C30H25INOPS,30,25,1,1,1,1,0,0,0,1,0
COC[P+](c1ccccc1)(c1ccccc1)c1ccccc1.[Cl-],,A135195,200.5,473.65,C20H20ClOP,20,20,0,1,0,1,0,1,0,0,0
Cc1cc(C)c(Cn2cc[n+]3c4ccc(Cl)cc4c(-c4ccccc4)c(-c4ccccc4)c23)c(C)c1.[Cl-],,A135195,209.5,482.65,C33H28Cl2N2,33,28,2,0,0,0,0,2,0,0,0
CCSc1oc(-c2ccc(Cl)cc2)nc1[P+](c1ccccc1)(c1ccccc1)c1ccccc1.[I-],,A135195,210,483.15,C29H24ClINOPS,29,24,1,1,1,1,0,1,0,1,0
CCCCCCCCCCCCCCCCCC[N+](C)(C)C.[Br-],,A135195,219,492.15,C21H46BrN,21,46,1,0,0,0,0,0,1,0,0
CCCCn1c[n+](Cc2cc(=O)cc(-c3ccccc3)o2)c2ccccc21.[I-],,A135195,219,492.15,C23H23IN2O2,23,23,2,2,0,0,0,0,0,1,0
CC[P+](c1ccccc1)(c1ccccc1)c1ccccc1.[Cl-],,A135195,227.5,500.65,C20H20ClP,20,20,0,0,0,1,0,1,0,0,0
CCCCCCCCCCCCCC[N+](C)(C)C.[Br-],,A135195,228,501.15,C17H38BrN,17,38,1,0,0,0,0,0,1,0,0
CCCCCCCCCCCCCC[P+](CCCCCC)(CCCCCC)CCCCCC.O=S(=O)([O-])[O-],,A135195,31,304.15,C32H68O4PS-,32,68,0,4,1,1,0,0,0,0,0
CC[n+]1cccc(C(F)(F)F)c1.O=S(=O)([N-]S(=O)(=O)C(F)(F)F)C(F)(F)F,,A135195,29.5,302.65,C10H9F9N2O4S2,10,9,2,4,2,0,9,0,0,0,0
CCCC[n+]1c(C)c(C)n(C)c1C.O=S(=O)([N-]S(=O)(=O)C(F)(F)F)C(F)(F)F,,A135195,30.5,303.65,C13H21F6N3O4S2,13,21,3,4,2,0,6,0,0,0,0
CCC[N+]1(C)CCCC1.COP(=O)([O-])SC,,A135195,33,306.15,C10H24NO3PS,10,24,1,3,1,1,0,0,0,0,0
CC1=CC(=O)[N-]S(=O)(=O)O1.CCCCCCCCCCCCCCOC[N+](C)(C)CCO,,A135195,31.25,304.4,C23H46N2O6S,23,46,2,6,1,0,0,0,0,0,0
FC(F)(F)C(F)(F)C(F)(F)C(F)(F)CC[n+]1ccccc1.O=S(=O)([N-]S(=O)(=O)C(F)(F)F)C(F)(F)F,,A135195,35,308.15,C13H9F15N2O4S2,13,9,2,4,2,0,15,0,0,0,0
CCCCOCn1cc[n+](COCCC)c1CC.F[P-](F)(F)(F)(F)F,,A135195,38,311.15,C14H27F6N2O2P,14,27,2,2,0,1,6,0,0,0,0
CCCCCCCOCn1cc[n+](COCCCCCCC)c1.F[B-](F)(F)F,,A135195,39,312.15,C19H37BF4N2O2,19,37,2,2,0,0,4,0,0,0,0
CCC[N+]1(C)CCCCC1.Cc1cc(Cl)ccc1OCC(=O)[O-],,A134898,39,312.15,C18H28ClNO3,18,28,1,3,0,0,0,1,0,0,0
CCC[N+]1(C)CCCC1.COP(=O)([O-])[Se]C,,A135085,40,313.15,C10H24NO3PSe,10,24,1,3,0,1,0,0,0,0,0
CCCCCCCCCC[P+](C)(CCCCCCCCCC)CCCCCCCCCC.[O-][Cl+3]([O-])([O-])[O-],,A135084,40.3,313.45,C31H66ClO4P,31,66,0,4,0,1,0,1,0,0,0
CC[NH+](CC)CC.O=S(=O)([N-]S(=O)(=O)C(F)(F)C(F)(F)C(F)(F)C(F)(F)F)C(F)(F)C(F)(F)C(F)(F)C(F)(F)F,,A135083,42,315.15,C14H16F18N2O4S2,14,16,2,4,2,0,18,0,0,0,0
COC(=O)CCSC(SC)=[N+]1CCCCC1.O=S(=O)([O-])C(F)(F)F,,A135082,42,315.15,C12H20F3NO5S3,12,20,1,5,3,0,3,0,0,0,0
CCCCCC[n+]1cccc(C(=O)O)c1.O=S(=O)([O-])O,,A135081,44,317.15,C12H19NO6S,12,19,1,6,1,0,0,0,0,0,0
CCCCCCCCCCCCSC[n+]1ccn(C)c1.F[B-](F)(F)F,,A135195,44,317.15,C17H33BF4N2S,17,33,2,0,1,0,4,0,0,0,0
CCOC(=O)C(OC(=O)C[n+]1ccn(C)c1)c1ccccc1.O=S(=O)([N-]S(=O)(=O)C(F)(F)F)C(F)(F)F,,A135195,45,318.15,C18H19F6N3O8S2,18,19,3,8,2,0,6,0,0,0,0
C=Cn1cc[n+](CCO)c1.[Br-],,A135080,46,319.15,C7H11BrN2O,7,11,2,1,0,0,0,0,1,0,0
CCCC[NH+]1C[Si](C)(C)O[Si](C)(C)C1.CS(=O)(=O)[O-],,A135078,48,321.15,C11H29NO4SSi2,11,29,1,4,1,0,0,0,0,0,2
O=S(=O)([N-]S(=O)(=O)C(F)(F)F)C(F)(F)F.c1ccc(COn2cc[n+](OCc3ccccc3)c2)cc1,,A135077,50,323.15,C19H17F6N3O6S2,19,17,3,6,2,0,6,0,0,0,0
C[NH+](C)Cc1ccccc1.O=S(=O)([N-]S(=O)(=O)C(F)(F)F)C(F)(F)F,,A135076,51,324.15,C11H14F6N2O4S2,11,14,2,4,2,0,6,0,0,0,0
C=CC[N+](C)(C)N.[Cl-],,A135075,52,325.15,C5H13ClN2,5,13,2,0,0,0,0,1,0,0,0
CCCCCCCCCCCC[N+]12CCN(CC1)CC2.O=S(=O)([N-]S(=O)(=O)C(F)(F)F)C(F)(F)F,,A135070,53.8,326.95,C20H37F6N3O4S2,20,37,3,4,2,0,6,0,0,0,0
CCCCCCCCCCCCCCCC[N+](C)(C)Cc1ccccc1.[Cl-],,A135074,55,328.15,C25H46ClN,25,46,1,0,0,0,0,1,0,0,0
Cc1n(C)cc[n+]1CCCO.[Br-],,A135073,58,331.15,C8H15BrN2O,8,15,2,1,0,0,0,0,1,0,0
CCn1cc[n+](CC)c1.F[P-](F)(F)(F)(F)F,,A135195,59.5,332.65,C7H13F6N2P,7,13,2,0,0,1,6,0,0,0,0
CCCC[N+](CCCC)(CCCC)CCCC.O=[N+]([O-])c1c[n-]nn1,,A135072,60,333.15,C18H37N5O2,18,37,5,2,0,0,0,0,0,0,0
Cc1cc[n+](CC(F)(F)F)cc1.O=S(=O)([N-]S(=O)(=O)C(F)(F)F)C(F)(F)F,,A135195,60.7,333.85,C10H9F9N2O4S2,10,9,2,4,2,0,9,0,0,0,0
CN(C)c1cc[n+](CCO)cc1.F[B-](F)(F)F,,A135071,62,335.15,C9H15BF4N2O,9,15,2,1,0,0,4,0,0,0,0
CCCCCCCCCCCCCC[N+]12CCN(CC1)CC2.O=S(=O)([N-]S(=O)(=O)C(F)(F)F)C(F)(F)F,,A135070,66,339.15,C22H41F6N3O4S2,22,41,3,4,2,0,6,0,0,0,0
CCCCCCCCCCCCCCCC[n+]1ccn(CCCNC(=O)CP(=O)(c2ccccc2)c2ccccc2)c1.[Br-],,A135069,67,340.15,C36H55BrN3O2P,36,55,3,2,0,1,0,0,1,0,0
CCCCCCCC[P+](c1ccccc1)(c1ccccc1)c1ccccc1.Cc1ccc(S(=O)(=O)[O-])cc1,,A135068,70,343.15,C33H39O3PS,33,39,0,3,1,1,0,0,0,0,0
CCCC[N+](CCCC)(CCCC)CCCC.O=C1O[B-]2(OC1=O)OC(=O)C(=O)O2,,A135195,73,346.15,C20H36BNO8,20,36,1,8,0,0,0,0,0,0,0
COC(=O)C(OC(=O)C[n+]1ccn(C)c1)c1ccccc1.O=S(=O)([N-]S(=O)(=O)C(F)(F)F)C(F)(F)F,,A135195,74,347.15,C17H17F6N3O8S2,17,17,3,8,2,0,6,0,0,0,0
Cn1ccc(C(F)(F)F)[n+]1C.O=C([O-])C(F)(F)F,,A135195,77,350.15,C8H8F6N2O2,8,8,2,2,0,0,6,0,0,0,0
COCCCNC(=O)C[n+]1ccn(C)c1.[Br-],,A135067,75,348.15,C10H18BrN3O2,10,18,3,2,0,0,0,0,1,0,0
CCCC[N+](CCCC)(CCCC)CCCC.O=S(=O)([O-])c1ccccc1,,A135066,75,348.15,C22H41NO3S,22,41,1,3,1,0,0,0,0,0,0
CC(c1ccccc1)[n+]1ccccc1.F[B-](F)(F)F,,A135195,75,348.15,C13H14BF4N,13,14,1,0,0,0,4,0,0,0,0
Cn1cc[n+](CCCCCCCCCCC(=O)O)c1.F[P-](F)(F)(F)(F)F,,A135195,78,351.15,C15H27F6N2O2P,15,27,2,2,0,1,6,0,0,0,0
CCCC[N+]1(C)CCOCC1.Cc1cc(Cl)ccc1OCC(=O)[O-],,A134898,77,350.15,C18H28ClNO4,18,28,1,4,0,0,0,1,0,0,0
C=CCOn1cc[n+](CC)c1C.[I-],,A135059,78,351.15,C9H15IN2O,9,15,2,1,0,0,0,0,0,1,0
O=S(=O)([O-])C(F)(F)F.c1c[nH+]ccn1,,A135065,78,351.15,C5H5F3N2O3S,5,5,2,3,1,0,3,0,0,0,0
CCCCn1cc[nH+]c1.O=[N+]([O-])c1cc([N+](=O)[O-])c([O-])c([N+](=O)[O-])c1,,A135064,80,353.15,C13H15N5O7,13,15,5,7,0,0,0,0,0,0,0
CCCCCCCCCCCCCCCC[N+](C)(C)CCN(C)C.[Br-],,A135195,84.75,357.9,C22H49BrN2,22,49,2,0,0,0,0,0,1,0,0
[Cl-].[NH3+]CCO,,A135195,82,355.15,C2H8ClNO,2,8,1,1,0,0,0,1,0,0,0
O=C([O-])C(F)(F)F.c1cc[nH+]cc1,,A135195,82,355.15,C7H6F3NO2,7,6,1,2,0,0,3,0,0,0,0
CCCCCCCCCCCCCCCC[n+]1ccc(C)cc1.[I-],,A135063,82,355.15,C22H40IN,22,40,1,0,0,0,0,0,0,1,0
C[n+]1ccn(OCc2ccccc2)c1.F[P-](F)(F)(F)(F)F,,A135059,83,356.15,C11H13F6N2OP,11,13,2,1,0,1,6,0,0,0,0
Cn1cc[n+](CCOC(=O)c2ccc(C(N)=NOC(=O)c3ccco3)cc2)c1.F[P-](F)(F)(F)(F)F,,A135195,84,357.15,C19H19F6N4O5P,19,19,4,5,0,1,6,0,0,0,0
CCC[n+]1ccn2c1CCC2.[Br-],,A135062,83,356.15,C9H15BrN2,9,15,2,0,0,0,0,0,1,0,0
CCCCCCCC[N+]12CCN(CC1)CC2.[Br-],,A135061,84,357.15,C14H29BrN2,14,29,2,0,0,0,0,0,1,0,0
CCOn1cc[n+](OCC)c1Br.F[P-](F)(F)(F)(F)F,,A135060,84,357.15,C7H12BrF6N2O2P,7,12,2,2,0,1,6,0,1,0,0
Cn1cc[n+](CC(=O)N2C(=O)OCC2Cc2ccccc2)c1.F[P-](F)(F)(F)(F)F,,A135195,85,358.15,C16H18F6N3O3P,16,18,3,3,0,1,6,0,0,0,0
C#CC[n+]1ccn(OC)c1.[Br-],,A135059,85,358.15,C7H9BrN2O,7,9,2,1,0,0,0,0,1,0,0
CCCCn1c[n+](CCCC)c2cc(C)c(C)cc21.F[P-](F)(F)(F)(F)F,,A135195,85.5,358.65,C17H27F6N2P,17,27,2,0,0,1,6,0,0,0,0
CCCCCCCCCCCCCCCC[N+](CCC)(CCC)CCC.[Br-],,A135058,85,358.15,C25H54BrN,25,54,1,0,0,0,0,0,1,0,0
CCCCCCCC[n+]1ccn(C)c1C.[I-],,A135057,86,359.15,C13H25IN2,13,25,2,0,0,0,0,0,0,1,0
CCCCCc1c[n+](C2CNC(C(O)(c3ccccc3)c3ccccc3)C2)nn1C.F[P-](F)(F)(F)(F)F,,A135195,87,360.15,C25H33F6N4OP,25,33,4,1,0,1,6,0,0,0,0
CCCC[n+]1ccn(CC(OCc2ccc(Cl)cc2Cl)c2ccc(Cl)cc2Cl)c1.F[P-](F)(F)(F)(F)F,,A135195,87.5,360.65,C22H23Cl4F6N2OP,22,23,2,1,0,1,6,4,0,0,0
CCCC[N+]1(CCCC)CCCC1.Cc1cc(C)c(S(=O)(=O)[O-])c(C)c1,,A135056,87,360.15,C21H37NO3S,21,37,1,3,1,0,0,0,0,0,0
C=Cc1ccc(C[n+]2ccn(CCCC)c2)cc1.F[P-](F)(F)(F)(F)F,,A135195,87.75,360.9,C16H21F6N2P,16,21,2,0,0,1,6,0,0,0,0
F[P-](F)(F)(F)(F)F.O=C(C[n+]1ccccc1)N1C(=O)OCC1Cc1ccccc1,,A135195,88.5,361.65,C17H17F6N2O3P,17,17,2,3,0,1,6,0,0,0,0
CCCn1cc[n+](C)c1.O=S(=O)([O-])c1cccc(P(c2ccccc2)c2ccccc2)c1,,A135055,88,361.15,C25H27N2O3PS,25,27,2,3,1,1,0,0,0,0,0
C[N+]1(Cc2ccccc2)CCOCC1.F[B-](F)(F)F,,A135334,88,361.15,C12H18BF4NO,12,18,1,1,0,0,4,0,0,0,0
CCCC[n+]1cnn(CC(O)CC)c1.[Br-],,A135054,89,362.15,C10H20BrN3O,10,20,3,1,0,0,0,0,1,0,0
CCCC[NH3+].O=C([O-])C=Cc1ccccc1,,A135053,89,362.15,C13H19NO2,13,19,1,2,0,0,0,0,0,0,0
CC(=O)OCC[N+](C)(C)C.Cc1cc(Cl)ccc1OCC(=O)[O-],,A135052,90,363.15,C16H24ClNO5,16,24,1,5,0,0,0,1,0,0,0
CCCC[N+](CCCC)(CCCC)CCCC.O=[N+]([O-])c1ccc(S(=O)(=O)[O-])cc1,,A135051,90,363.15,C22H40N2O5S,22,40,2,5,1,0,0,0,0,0,0
C=C(C)C(=O)OCC[N+](C)(C)CC.[I-],,A135195,91.25,364.4,C10H20INO2,10,20,1,2,0,0,0,0,0,1,0
Cn1cc[n+](CCc2ccccc2)c1.[Cl-],,A135050,91,364.15,C12H15ClN2,12,15,2,0,0,0,0,1,0,0,0
Cc1cc(=O)cc(-c2ccc(C[n+]3ccn(C)c3)cc2)o1.F[B-](F)(F)F,,A135333,91,364.15,C17H17BF4N2O2,17,17,2,2,0,0,4,0,0,0,0
CCOC(=O)C[N+](C)(C)C.COC(=O)c1ccc(I)cc1S(=O)(=O)[N-]C(=O)Nc1nc(C)nc(OC)n1,,A134894,91,364.15,C21H29IN6O8S,21,29,6,8,1,0,0,0,0,1,0
CCCCCCCCCCCCCCCCCC[n+]1cccc2ccccc21.[Br-],,A135049,92,365.15,C27H44BrN,27,44,1,0,0,0,0,0,1,0,0
CCCCCCCCCOC(=O)C[N+](C)(C)C.[Br-],,A134899,92,365.15,C14H30BrNO2,14,30,1,2,0,0,0,0,1,0,0
CCC[N+]12CCN(CC1)CC2.F[B-](F)(F)F,,A135331,93,366.15,C9H19BF4N2,9,19,2,0,0,0,4,0,0,0,0
CC[n+]1ccn(C(F)(F)C(F)Cl)c1.[I-],,A134899,94,367.15,C7H9ClF3IN2,7,9,2,0,0,0,3,1,0,1,0
CCCCCCCCCCCCOC(=O)C(Cc1ccccc1)NC(=O)C[n+]1ccn(C)c1.[Br-],,A134898,94,367.15,C27H42BrN3O3,27,42,3,3,0,0,0,0,1,0,0
C[N+](C)(C)CCCl.Cc1cc(Cl)ccc1OCC(=O)[O-],,A134898,95,368.15,C14H21Cl2NO3,14,21,1,3,0,0,0,2,0,0,0
CN1C=C[N+](CC(N2C(OC[C@@H]2C3=CC=CC=C3)=O)=O)=C1.F[P-](F)(F)(F)(F)F,,A135331,95,368.15,C15H16F6N3O3P,15,16,3,3,0,1,6,0,0,0,0
CCCC[N+](CCCC)(CCCC)Cc1cc(Cl)c(O)c(C=O)c1.F[P-](F)(F)(F)(F)F,,A134897,95,368.15,C20H33ClF6NO2P,20,33,1,2,0,1,6,1,0,0,0
C[n+]1ccn(CCOC(=O)c2ccccc2O)c1.F[B-](F)(F)F,,A135330,97,370.15,C13H15BF4N2O3,13,15,2,3,0,0,4,0,0,0,0
CC[n+]1ccn(C(C)=O)c1.[I-],,A134896,97,370.15,C7H11IN2O,7,11,2,1,0,0,0,0,0,1,0
CCCCCCCCOC(=O)C(Cc1ccccc1)NC(=O)C[n+]1ccccc1.[Br-],,A134895,98,371.15,C24H33BrN2O3,24,33,2,3,0,0,0,0,1,0,0
CCCCCCCCCCCCOC(=O)C[N+](C)(C)C.[Br-],,A134894,99,372.15,C17H36BrNO2,17,36,1,2,0,0,0,0,1,0,0
CCCCCCCCCCCCCC[N+](C)(C)Cc1ccccc1.COc1cc(C(=O)[O-])ccc1O,,A138128,47.5,320.65,C31H49NO4,31,49,1,4,0,0,0,0,0,0,0
CC(C)C(N)C(=O)[O-].C[N+](C)(C)C,,A138128,40.2,313.35,C9H22N2O2,9,22,2,2,0,0,0,0,0,0,0
CC(C)C(N)C(=O)[O-].CCCC[N+](CCCC)(CCCC)CCCC,,A138128,25.2,298.35,C21H46N2O2,21,46,2,2,0,0,0,0,0,0,0
CCCC[N+](CCCC)(CCCC)CCCC.O=S(=O)([N-]S(=O)(=O)OCC(F)(F)F)OCC(F)(F)F,,A138128,44.2,317.35,C20H40F6N2O6S2,20,40,2,6,2,0,6,0,0,0,0
CCC[N+]1(C)CCCC1.O=S(=O)([N-]S(=O)(=O)OCC(F)(F)F)OCC(F)(F)F,,A138128,9.2,282.35,C12H22F6N2O6S2,12,22,2,6,2,0,6,0,0,0,0
CCC[N+]1(C)CCCCC1.O=S(=O)([N-]S(=O)(=O)OCC(F)(F)F)OCC(F)(F)F,,A138128,26.2,299.35,C13H24F6N2O6S2,13,24,2,6,2,0,6,0,0,0,0
Cn1cc[nH+]c1.O=C([O-])C(F)(F)C(F)(F)C(F)(F)C(F)(F)C(F)(F)C(F)(F)C(F)(F)F,,A138128,86.2,359.35,C12H7F15N2O2,12,7,2,2,0,0,15,0,0,0,0
CC[NH3+].O=C([O-])C(F)(F)C(F)(F)C(F)(F)C(F)(F)C(F)(F)C(F)(F)C(F)(F)F,,A138128,58.2,331.35,C10H8F15NO2,10,8,1,2,0,0,15,0,0,0,0
CCCC[NH3+].O=C([O-])C(F)(F)C(F)(F)C(F)(F)C(F)(F)C(F)(F)C(F)(F)C(F)(F)F,,A138128,45.2,318.35,C12H12F15NO2,12,12,1,2,0,0,15,0,0,0,0
CCCCCCCCn1cc[n+](C)c1.O=C([O-])C(F)(F)C(F)(F)C(F)(F)C(F)(F)F,,A138128,24.2,297.35,C17H23F9N2O2,17,23,2,2,0,0,9,0,0,0,0
Cn1cc[nH+]c1.O=C([O-])C(F)(F)C(F)(F)C(F)(F)F,,A138128,79.2,352.35,C8H7F7N2O2,8,7,2,2,0,0,7,0,0,0,0
O=C([O-])C(F)(F)C(F)(F)C(F)(F)F.O=C1CCC[NH2+]1,,A138128,8.2,281.35,C8H8F7NO3,8,8,1,3,0,0,7,0,0,0,0
CC[NH3+].O=C([O-])C(F)(F)C(F)(F)C(F)(F)F,,A138128,59.2,332.35,C6H8F7NO2,6,8,1,2,0,0,7,0,0,0,0
CCCC[NH3+].O=C([O-])C(F)(F)C(F)(F)C(F)(F)F,,A138128,53.2,326.35,C8H12F7NO2,8,12,1,2,0,0,7,0,0,0,0
CC[NH2+]CC.O=C([O-])C(F)(F)C(F)(F)C(F)(F)F,,A138128,45.2,318.35,C8H12F7NO2,8,12,1,2,0,0,7,0,0,0,0
CC[NH+](CC)CC.O=C([O-])C(F)(F)C(F)(F)C(F)(F)F,,A138128,25.2,298.35,C10H16F7NO2,10,16,1,2,0,0,7,0,0,0,0
O=C([O-])C(F)(F)C(F)(F)C(F)(F)F.[NH3+]CCO,,A138128,41.2,314.35,C6H8F7NO3,6,8,1,3,0,0,7,0,0,0,0
C1CC[NH2+]C1.O=C([O-])C(F)(F)C(F)(F)C(F)(F)F,,A138128,4.2,277.35,C8H10F7NO2,8,10,1,2,0,0,7,0,0,0,0
CCCCCCCCn1cc[n+](C)c1.O=C([O-])C(F)(F)F,,A138128,6.5,279.65,C14H23F3N2O2,14,23,2,2,0,0,3,0,0,0,0
O=C([O-])C(F)(F)F.[NH3+]CCO,,A138128,89.2,362.35,C4H8F3NO3,4,8,1,3,0,0,3,0,0,0,0
C1CC[NH2+]C1.O=C([O-])C(F)(F)F,,A138128,-9.8,263.35,C6H10F3NO2,6,10,1,2,0,0,3,0,0,0,0
CCCC[N+]1(C)CCCCCC1.O=C([O-])C(F)(F)F,,A138128,74.2,347.35,C13H24F3NO2,13,24,1,2,0,0,3,0,0,0,0
CCCCCC[N+]1(C)CCCCCC1.O=C([O-])C(F)(F)F,,A138128,45.2,318.35,C15H28F3NO2,15,28,1,2,0,0,3,0,0,0,0
COCC[N+]1(C)CCCCCC1.O=C([O-])C(F)(F)F,,A138128,12.2,285.35,C12H22F3NO3,12,22,1,3,0,0,3,0,0,0,0
CCCCCCOC(=O)CC(C(=O)OCCCCCC)C(C(=O)OCCCCCC)S(=O)(=O)[O-].CCCCn1cc[n+](C)c1,,A138128,-21.8,251.35,C32H58N2O9S,32,58,2,9,1,0,0,0,0,0,0
CCn1cc[n+](C)c1.N#C[B-](C#N)(C#N)C#N,,A138128,8.5,281.65,C10H11BN6,10,11,6,0,0,0,0,0,0,0,0
CCCCn1cc[n+](C)c1C.N#C[B-](C#N)(C#N)C#N,,A138128,63.2,336.35,C13H17BN6,13,17,6,0,0,0,0,0,0,0,0
N#C[B-](C#N)(C#N)C#N.c1cc[nH+]cc1,,A138128,137.2,410.35,C9H6BN5,9,6,5,0,0,0,0,0,0,0,0
C[NH2+]C.N#C[B-](C#N)(C#N)C#N,,A138128,129.2,402.35,C6H8BN5,6,8,5,0,0,0,0,0,0,0,0
CCCC[N+]1(C)CCCCC1.N#C[B-](C#N)(C#N)C#N,,A138128,17.2,290.35,C14H22BN5,14,22,5,0,0,0,0,0,0,0,0
CCn1cc[n+](C)c1.N#CCC(=C(C#N)C#N)[C-](C#N)C#N,,A138128,25.2,298.35,C15H13N7,15,13,7,0,0,0,0,0,0,0,0
CC(=C(C#N)C#N)[C-](C#N)C#N.CCn1cc[n+](C)c1,,A138128,42.2,315.35,C14H14N6,14,14,6,0,0,0,0,0,0,0,0
CCn1cc[n+](C)c1.N#CC(C#N)=C[C-](C#N)C#N,,A138128,42.2,315.35,C13H12N6,13,12,6,0,0,0,0,0,0,0,0
CCCCn1cc[n+](C)c1.N#CC(C#N)=C[C-](C#N)C#N,,A138128,20.2,293.35,C15H16N6,15,16,6,0,0,0,0,0,0,0,0
CCCCOS(=O)(=O)[O-].CCCCn1cc[n+](C)c1,,A138128,-24.8,248.35,C12H24N2O4S,12,24,2,4,1,0,0,0,0,0,0
CCCCOS(=O)(=O)[O-].CCCCn1cc[n+](C)c1C,,A138128,47.2,320.35,C13H26N2O4S,13,26,2,4,1,0,0,0,0,0,0
CCCCOS(=O)(=O)[O-].CC[N+]1(C)CCCCC1,,A138128,43.2,316.35,C12H27NO4S,12,27,1,4,1,0,0,0,0,0,0
CCCCOS(=O)(=O)[O-].CCCC[N+]1(C)CCCCC1,,A138128,55.2,328.35,C14H31NO4S,14,31,1,4,1,0,0,0,0,0,0
CCCCOS(=O)(=O)[O-].CC[N+]1(C)CCOCC1,,A138128,19.2,292.35,C11H25NO5S,11,25,1,5,1,0,0,0,0,0,0
CCCCn1cc[n+](C)c1.CCOS(=O)(=O)[O-],,A138128,57.2,330.35,C10H20N2O4S,10,20,2,4,1,0,0,0,0,0,0
CCOS(=O)(=O)[O-].CC[n+]1ccccc1C#N,,A138128,35.2,308.35,C10H14N2O4S,10,14,2,4,1,0,0,0,0,0,0
CCCC[N+](C)(C)CC.CCOS(=O)(=O)[O-],,A138128,34,307.15,C10H25NO4S,10,25,1,4,1,0,0,0,0,0,0
CC(C)Cn1cc[n+](CC(C)C)c1.Cc1ccc(S(=O)(=O)[O-])cc1,,A138128,95.2,368.35,C18H28N2O3S,18,28,2,3,1,0,0,0,0,0,0