IL_SMILES,NAME,ARTICLEID,IL-Tm (deg-C),IL-Tm (K),MolecularFormula,C,H,N,O,S,P,F,Cl,Br,I,Si
CC(C)CC[n+]1ccn(C)c1.O=S(=O)([N-]S(=O)(=O)C(F)(F)C(F)(F)C(F)(F)C(F)(F)F)C(F)(F)C(F)(F)C(F)(F)C(F)(F)F,C0584_A0028,A132065,40,313.15,C17H17F18N3O4S2,17,17,3,4,2,0,18,0,0,0,0
C[n+]1ccn(CCO[Si](C)(C)C)c1.[I-],C0082_A0069,A132065,69,342.15,C9H19IN2OSi,9,19,2,1,0,0,0,0,0,1,1
C[Si](C)(C)OCCn1cc[n+](CCF)c1.[Br-],C0816_A0004,A132065,126,399.15,C10H20BrFN2OSi,10,20,2,1,0,0,1,0,1,0,1
C[Si](C)(C)OCCn1cc[n+](CCC(F)(F)F)c1.[I-],C1030_A0069,A132065,133,406.15,C11H20F3IN2OSi,11,20,2,1,0,0,3,0,0,1,1
CCC(=O)C[n+]1ccn(CCC(F)(F)F)c1.O=S(=O)([N-]S(=O)(=O)C(F)(F)F)C(F)(F)F,C0591_A0048,A132065,128,401.15,C12H14F9N3O5S2,12,14,3,5,2,0,9,0,0,0,0
C[n+]1ccn(CC#N)c1.F[B-](F)(F)F,C0448_A0020,A132065,35,308.15,C6H8BF4N3,6,8,3,0,0,0,4,0,0,0,0
C[n+]1ccn(CC#N)c1.F[P-](F)(F)(F)(F)F,C0448_A0011,A132065,78,351.15,C6H8F6N3P,6,8,3,0,0,1,6,0,0,0,0
C[n+]1ccn(CCC#N)c1.[Cl-],C0197_A0033,A132065,50,323.15,C7H10ClN3,7,10,3,0,0,0,0,1,0,0,0
C[n+]1ccn(CCC#N)c1.F[B-](F)(F)F,C0197_A0020,A132065,20,293.15,C7H10BF4N3,7,10,3,0,0,0,4,0,0,0,0
C[n+]1ccn(CCC#N)c1.F[P-](F)(F)(F)(F)F,C0197_A0011,A132065,35,308.15,C7H10F6N3P,7,10,3,0,0,1,6,0,0,0,0
C[n+]1ccn(CCCC#N)c1.[Cl-],C0083_A0033,A132065,80,353.15,C8H12ClN3,8,12,3,0,0,0,0,1,0,0,0
C[n+]1ccn(CCCC#N)c1.F[B-](F)(F)F,C0083_A0020,A132065,-72,201.15,C8H12BF4N3,8,12,3,0,0,0,4,0,0,0,0
CC(CC#N)[B-](F)(F)F.C[n+]1ccn(CCCC#N)c1,C0083_A0029,A132065,-77,196.15,C12H18BF3N4,12,18,4,0,0,0,3,0,0,0,0
C[n+]1ccn(CCCC#N)c1.F[P-](F)(F)(F)(F)F,C0083_A0011,A132065,75,348.15,C8H12F6N3P,8,12,3,0,0,1,6,0,0,0,0
C[n+]1ccn(CCCCC#N)c1.[Cl-],C0196_A0033,A132065,32,305.15,C9H14ClN3,9,14,3,0,0,0,0,1,0,0,0
C[n+]1ccn(CCCCC#N)c1.F[B-](F)(F)F,C0196_A0020,A132065,-72,201.15,C9H14BF4N3,9,14,3,0,0,0,4,0,0,0,0
C[n+]1ccn(CCCCC#N)c1.F[P-](F)(F)(F)(F)F,C0196_A0011,A132065,-60,213.15,C9H14F6N3P,9,14,3,0,0,1,6,0,0,0,0
CCCC[NH+]1C=CN(CCP(=O)(OCC)OCC)C1.F[B-](F)(F)F,C0249_A0020,A132065,-81,192.15,C13H28BF4N2O3P,13,28,2,3,0,1,4,0,0,0,0
CCCC[NH+]1C=CN(CCP(=O)(OCC)OCC)C1.F[P-](F)(F)(F)(F)F,C0249_A0011,A132065,-50,223.15,C13H28F6N2O3P2,13,28,2,3,0,2,6,0,0,0,0
CCCC[NH+]1C=CN(CCCP(=O)(OCC)OCC)C1.F[B-](F)(F)F,C0166_A0020,A132065,-64,209.15,C14H30BF4N2O3P,14,30,2,3,0,1,4,0,0,0,0
CCCC[NH+]1C=CN(CCCP(=O)(OCC)OCC)C1.F[P-](F)(F)(F)(F)F,C0166_A0011,A132065,-53,220.15,C14H30F6N2O3P2,14,30,2,3,0,2,6,0,0,0,0
CCCCCC[NH+]1C=CN(CCP(=O)(OCC)OCC)C1.F[B-](F)(F)F,C0739_A0020,A132065,-83,190.15,C15H32BF4N2O3P,15,32,2,3,0,1,4,0,0,0,0
CCCCCC[NH+]1C=CN(CCP(=O)(OCC)OCC)C1.F[P-](F)(F)(F)(F)F,C0739_A0011,A132065,-62,211.15,C15H32F6N2O3P2,15,32,2,3,0,2,6,0,0,0,0
CCCCCC[NH+]1C=CN(CCCP(=O)(OCC)OCC)C1.F[B-](F)(F)F,C0393_A0020,A132065,-76,197.15,C16H34BF4N2O3P,16,34,2,3,0,1,4,0,0,0,0
CCCCCC[NH+]1C=CN(CCCP(=O)(OCC)OCC)C1.F[P-](F)(F)(F)(F)F,C0393_A0011,A132065,-66,207.15,C16H34F6N2O3P2,16,34,2,3,0,2,6,0,0,0,0
CCCCCCCC[NH+]1C=CN(CCP(=O)(OCC)OCC)C1.F[B-](F)(F)F,C0226_A0020,A132065,-80,193.15,C17H36BF4N2O3P,17,36,2,3,0,1,4,0,0,0,0
CCCCCCCC[NH+]1C=CN(CCP(=O)(OCC)OCC)C1.F[P-](F)(F)(F)(F)F,C0226_A0011,A132065,-64,209.15,C17H36F6N2O3P2,17,36,2,3,0,2,6,0,0,0,0
CCCCCCCC[NH+]1C=CN(CCCP(=O)(OCC)OCC)C1.F[B-](F)(F)F,C0094_A0020,A132065,-65,208.15,C18H38BF4N2O3P,18,38,2,3,0,1,4,0,0,0,0
CCCCCCCC[NH+]1C=CN(CCCP(=O)(OCC)OCC)C1.F[P-](F)(F)(F)(F)F,C0094_A0011,A132065,-93,180.15,C18H38F6N2O3P2,18,38,2,3,0,2,6,0,0,0,0
C[n+]1ccn(CCC(F)(F)C(F)(F)S(F)(F)(F)(F)F)c1.O=S(=O)([N-]S(=O)(=O)C(F)(F)F)C(F)(F)F,C0257_A0048,A132065,-56,217.15,C10H10F15N3O4S3,10,10,3,4,3,0,15,0,0,0,0
C[n+]1ccn(CCCCC(F)(F)C(F)(F)S(F)(F)(F)(F)F)c1.O=S(=O)([N-]S(=O)(=O)C(F)(F)F)C(F)(F)F,C0742_A0048,A132065,-57,216.15,C12H14F15N3O4S3,12,14,3,4,3,0,15,0,0,0,0
C[n+]1ccn(CCC(F)(F)C(F)(F)C(F)(F)C(F)(F)S(F)(F)(F)(F)F)c1.O=S(=O)([N-]S(=O)(=O)C(F)(F)F)C(F)(F)F,C0892_A0048,A132065,-50,223.15,C12H10F19N3O4S3,12,10,3,4,3,0,19,0,0,0,0
C[n+]1ccn(CCCSC(=S)N(c2ccccc2)c2ccccc2)c1.F[P-](F)(F)(F)(F)F,C0705_A0011,A132065,54,327.15,C20H22F6N3PS2,20,22,3,0,2,1,6,0,0,0,0
C[n+]1ccn(CCCSC(=S)N2CCOCC2)c1.F[P-](F)(F)(F)(F)F,C0668_A0011,A132065,51,324.15,C12H20F6N3OPS2,12,20,3,1,2,1,6,0,0,0,0
C[n+]1ccn(CCCSC(=S)n2ccnc2)c1.F[P-](F)(F)(F)(F)F,C1077_A0011,A132065,125,398.15,C11H15F6N4PS2,11,15,4,0,2,1,6,0,0,0,0
Cn1cc[n+](CCCBr)c1.F[P-](F)(F)(F)(F)F,C0435_A0011,A132065,46,319.15,C7H12BrF6N2P,7,12,2,0,0,1,6,0,1,0,0
CCCCn1cc[n+](CC(C)O)c1.[Cl-],C1139_A0033,A132065,137,410.15,C10H19ClN2O,10,19,2,1,0,0,0,1,0,0,0
CCCCNC(=O)Cn1cc[n+](C)c1.F[P-](F)(F)(F)(F)F,C0221_A0011,A132065,65,338.15,C10H18F6N3OP,10,18,3,1,0,1,6,0,0,0,0
CCCCN(C)C(=O)Cn1cc[n+](C)c1.F[P-](F)(F)(F)(F)F,C0878_A0011,A132065,63,336.15,C11H20F6N3OP,11,20,3,1,0,1,6,0,0,0,0
CCN(CC)C(=O)C[n+]1ccn(C)c1.[Br-],C0489_A0004,A132065,67,340.15,C10H18BrN3O,10,18,3,1,0,0,0,0,1,0,0
CCN(CC)C(=O)C[n+]1ccn(C)c1.O=S(=O)([N-]S(=O)(=O)C(F)(F)F)C(F)(F)F,C0489_A0048,A132065,44,317.15,C12H18F6N4O5S2,12,18,4,5,2,0,6,0,0,0,0
CCN(CC)C(=O)C[n+]1ccn(C)c1.F[P-](F)(F)(F)(F)F,C0489_A0011,A132065,65,338.15,C10H18F6N3OP,10,18,3,1,0,1,6,0,0,0,0
C#CCn1cc[n+](C)c1.CC(CC#N)[B-](F)(F)F,C0733_A0029,A132065,-80,193.15,C11H15BF3N3,11,15,3,0,0,0,3,0,0,0,0
C=CCn1cc[n+](C)c1.F[B-](F)(F)F,C0316_A0020,A132065,-81,192.15,C7H11BF4N2,7,11,2,0,0,0,4,0,0,0,0
C=CCn1cc[n+](C)c1.CC(CC#N)[B-](F)(F)F,C0316_A0029,A132065,-89,184.15,C11H17BF3N3,11,17,3,0,0,0,3,0,0,0,0
CC(CC#N)[B-](F)(F)F.C[n+]1ccn(CCCC(=O)O)c1,C0188_A0029,A132065,-59,214.15,C12H19BF3N3O2,12,19,3,2,0,0,3,0,0,0,0
C#CCn1cc[n+](CC#C)c1.F[B-](F)(F)F,C0253_A0020,A132065,67,340.15,C9H9BF4N2,9,9,2,0,0,0,4,0,0,0,0
C#CCn1cc[n+](CC#C)c1.CC(CC#N)[B-](F)(F)F,C0253_A0029,A132065,-55,218.15,C13H15BF3N3,13,15,3,0,0,0,3,0,0,0,0
C=CCn1cc[n+](CC=C)c1.CC(CC#N)[B-](F)(F)F,C1026_A0029,A132065,-87,186.15,C13H19BF3N3,13,19,3,0,0,0,3,0,0,0,0
CC(CC#N)[B-](F)(F)F.N#CCCCn1cc[n+](CCCC#N)c1,C0088_A0029,A132065,-70,203.15,C15H21BF3N5,15,21,5,0,0,0,3,0,0,0,0
CC(CC#N)[B-](F)(F)F.O=C(O)CCCn1cc[n+](CCCC(=O)O)c1,C0239_A0029,A132065,38,311.15,C15H23BF3N3O4,15,23,3,4,0,0,3,0,0,0,0
CC(C[n+]1ccn(C)c1)OCc1ccccc1.[Br-],C0630_A0004,A132065,58,331.15,C14H19BrN2O,14,19,2,1,0,0,0,0,1,0,0
CC(C[n+]1ccn(C)c1)OCc1ccccc1.F[B-](F)(F)F,C0630_A0020,A132065,42,315.15,C14H19BF4N2O,14,19,2,1,0,0,4,0,0,0,0
CC(C[n+]1ccn(C)c1)OCc1ccccc1.F[P-](F)(F)(F)(F)F,C0630_A0011,A132065,93,366.15,C14H19F6N2OP,14,19,2,1,0,1,6,0,0,0,0
Cn1cc[n+](CC(Br)CBr)c1.F[P-](F)(F)(F)(F)F,C1084_A0011,A132065,71,344.15,C7H11Br2F6N2P,7,11,2,0,0,1,6,0,2,0,0
C#CCCCn1cc[n+](CCCC#C)c1.[Cl-],C0528_A0033,A132065,65,338.15,C13H17ClN2,13,17,2,0,0,0,0,1,0,0,0
C#CCCCn1cc[n+](CCCC#C)c1.F[B-](F)(F)F,C0528_A0020,A132065,-23,250.15,C13H17BF4N2,13,17,2,0,0,0,4,0,0,0,0
O=S(=O)([O-])C(F)(F)F.c1ccc(Cn2cc[n+](Cc3ccccc3)c2)cc1,C0841_A0084,A132065,73,346.15,C18H17F3N2O3S,18,17,2,3,1,0,3,0,0,0,0
Cc1ccc(S(=O)(=O)[O-])cc1.c1ccc(Cn2cc[n+](Cc3ccccc3)c2)cc1,C0841_A0030,A132065,114,387.15,C24H24N2O3S,24,24,2,3,1,0,0,0,0,0,0
CC1=NC(C)=C(C)[NH2+]1.[Cl-],C0210_A0033,A132065,194,467.15,C6H11ClN2,6,11,2,0,0,0,0,1,0,0,0
Cc1n(C)cc[n+]1C.[Cl-],C1086_A0033,A132065,189,462.15,C6H11ClN2,6,11,2,0,0,0,0,1,0,0,0
CCn1cc[n+](C)c1C.[Cl-],C0162_A0033,A132065,188,461.15,C7H13ClN2,7,13,2,0,0,0,0,1,0,0,0
CCn1cc[n+](C)c1C.[Br-],C0162_A0004,A132065,141,414.15,C7H13BrN2,7,13,2,0,0,0,0,0,1,0,0
CCn1cc[n+](C)c1C.O=S(=O)([N-]S(=O)(=O)C(F)(F)C(F)(F)F)C(F)(F)C(F)(F)F,C0162_A0067,A132065,25,298.15,C11H13F10N3O4S2,11,13,3,4,2,0,10,0,0,0,0
CCn1cc[n+](C)c1C.O=S(=O)([O-])C(F)(F)F,C0162_A0084,A132065,109,382.15,C8H13F3N2O3S,8,13,2,3,1,0,3,0,0,0,0
CCn1cc[n+](C)c1C.O=C([O-])C(F)(F)F,C0162_A0064,A132065,59,332.15,C9H13F3N2O2,9,13,2,2,0,0,3,0,0,0,0
CC[n+]1cn(C)cc1C.O=S(=O)([N-]S(=O)(=O)C(F)(F)F)C(F)(F)F,C0305_A0048,A132065,-39,234.15,C9H13F6N3O4S2,9,13,3,4,2,0,6,0,0,0,0
CC[n+]1cn(C)cc1C.O=S(=O)([O-])C(F)(F)F,C0305_A0084,A132065,6,279.15,C8H13F3N2O3S,8,13,2,3,1,0,3,0,0,0,0
CCn1cc(C)[n+](CC)c1.O=C([O-])c1ccccc1,C0443_A0031,A132065,16,289.15,C15H20N2O2,15,20,2,2,0,0,0,0,0,0,0
CCn1cc(C)[n+](CC)c1.O=S(=O)([N-]S(=O)(=O)C(F)(F)F)C(F)(F)F,C0443_A0048,A132065,-22,251.15,C10H15F6N3O4S2,10,15,3,4,2,0,6,0,0,0,0
CCn1cc(C)[n+](CC)c1.O=S(=O)([O-])C(F)(F)F,C0443_A0084,A132065,35,308.15,C9H15F3N2O3S,9,15,2,3,1,0,3,0,0,0,0
CCCn1cc[n+](CC)c1CC.[Cl-],C0148_A0033,A132065,138,411.15,C10H19ClN2,10,19,2,0,0,0,0,1,0,0,0
CCCn1cc[n+](C)c1C.O=S(=O)([N-]S(=O)(=O)C(F)(F)F)C(F)(F)F,C0052_A0048,A132065,15,288.15,C10H15F6N3O4S2,10,15,3,4,2,0,6,0,0,0,0
CCCn1cc[n+](C)c1C.O=S(=O)([N-]S(=O)(=O)C(F)(F)C(F)(F)F)C(F)(F)C(F)(F)F,C0052_A0067,A132065,34,307.15,C12H15F10N3O4S2,12,15,3,4,2,0,10,0,0,0,0
CCCn1cc[n+](C)c1C.F[P-](F)(F)(F)(F)F,C0052_A0011,A132065,78,351.15,C8H15F6N2P,8,15,2,0,0,1,6,0,0,0,0
CCc1n(C)cc[n+]1CC.O=S(=O)([N-]S(=O)(=O)C(F)(F)F)C(F)(F)F,C0862_A0048,A132065,28,301.15,C10H15F6N3O4S2,10,15,3,4,2,0,6,0,0,0,0
CCc1n(C)cc[n+]1CC.O=S(=O)([O-])C(F)(F)F,C0862_A0084,A132065,113,386.15,C9H15F3N2O3S,9,15,2,3,1,0,3,0,0,0,0
CCCC[n+]1ccn(C)c1C.F[B-](F)(F)F,C1098_A0020,A132065,37,310.15,C9H17BF4N2,9,17,2,0,0,0,4,0,0,0,0
CCCC[n+]1ccn(C)c1C.O=C1[N-]S(=O)(=O)c2ccccc21,C1098_A0007,A132065,70,343.15,C16H21N3O3S,16,21,3,3,1,0,0,0,0,0,0
CCCC[n+]1ccn(C)c1C.O=S(=O)([O-])C(F)(F)C(F)(F)C(F)(F)C(F)(F)F,C1098_A0079,A132065,60,333.15,C13H17F9N2O3S,13,17,2,3,1,0,9,0,0,0,0
CCCC[n+]1ccn(C)c1C.O=S(=O)([O-])OCCCC(F)(F)C(F)(F)F,C1098_A0086,A132065,13,286.15,C14H23F5N2O4S,14,23,2,4,1,0,5,0,0,0,0
CCCC[n+]1ccn(C)c1C.O=S(=O)([O-])OCC(F)(F)C(F)(F)C(F)(F)C(F)F,C1098_A0078,A132065,-14,259.15,C14H20F8N2O4S,14,20,2,4,1,0,8,0,0,0,0
CCCCCCOCCOCCOCCOCCOCCOCCOCCOCCOCCOCCOS(=O)(=O)[O-].CCCC[n+]1ccn(C)c1C,C1098_A0058,A132065,36,309.15,C35H70N2O14S,35,70,2,14,1,0,0,0,0,0,0
CCCC[n+]1ccn(C)c1C.F[P-](F)(F)(F)(F)F,C1098_A0011,A132065,40,313.15,C9H17F6N2P,9,17,2,0,0,1,6,0,0,0,0
CCCCCCCC[n+]1ccn(C)c1C.O=S(=O)([O-])C(F)(F)F,C0888_A0084,A132065,-38,235.15,C14H25F3N2O3S,14,25,2,3,1,0,3,0,0,0,0
Cc1[nH+]ccn1CCCC#N.[Cl-],C0571_A0033,A132065,105,378.15,C8H12ClN3,8,12,3,0,0,0,0,1,0,0,0
Cc1[nH+]ccn1CCCC#N.F[B-](F)(F)F,C0571_A0020,A132065,40,313.15,C8H12BF4N3,8,12,3,0,0,0,4,0,0,0,0
Cc1[nH+]ccn1CCCC#N.F[P-](F)(F)(F)(F)F,C0571_A0011,A132065,85,358.15,C8H12F6N3P,8,12,3,0,0,1,6,0,0,0,0
Cn1cc([N+](=O)[O-])[n+](C)c1.[O-][Cl+3]([O-])([O-])[O-],C0140_A0051,A132065,172,445.15,C5H8ClN3O6,5,8,3,6,0,0,0,1,0,0,0
Cn1cc([N+](=O)[O-])[n+](C)c1.O=[N+]([O-])[O-],C0140_A0090,A132065,163,436.15,C5H8N4O5,5,8,4,5,0,0,0,0,0,0,0
Cn1cc[n+]2c1CCC2.O=S(=O)([N-]S(=O)(=O)C(F)(F)F)C(F)(F)F,C1004_A0048,A132065,84,357.15,C9H11F6N3O4S2,9,11,3,4,2,0,6,0,0,0,0
CCCCCC[n+]1ccn(C)c1C.O=S(=O)([N-]S(=O)(=O)C(F)(F)F)C(F)(F)F,C1036_A0048,A132065,-5,268.15,C13H21F6N3O4S2,13,21,3,4,2,0,6,0,0,0,0
CCn1cc[n+](C(C)CO)c1.[Br-],C0673_A0004,A132065,6,279.15,C8H15BrN2O,8,15,2,1,0,0,0,0,1,0,0
CCn1cc[n+](C(CO)C(C)C)c1.[Br-],C0398_A0004,A132065,12,285.15,C10H19BrN2O,10,19,2,1,0,0,0,0,1,0,0
CCn1cc[n+](C(CO)CC(C)C)c1.[Br-],C0003_A0004,A132065,16,289.15,C11H21BrN2O,11,21,2,1,0,0,0,0,1,0,0
C[n+]1ccn2c1CCCC2.O=S(=O)([N-]S(=O)(=O)C(F)(F)F)C(F)(F)F,C1134_A0048,A132065,47,320.15,C10H13F6N3O4S2,10,13,3,4,2,0,6,0,0,0,0
CCn1cc[n+](CC)c1C.O=S(=O)([N-]S(=O)(=O)C(F)(F)F)C(F)(F)F,C0214_A0048,A132065,-22,251.15,C10H15F6N3O4S2,10,15,3,4,2,0,6,0,0,0,0
Cc1n(C)cc([N+](=O)[O-])[n+]1C.[O-][Cl+3]([O-])([O-])[O-],C0517_A0051,A132065,186,459.15,C6H10ClN3O6,6,10,3,6,0,0,0,1,0,0,0
Cc1n(C)cc([N+](=O)[O-])[n+]1C.O=[N+]([O-])[O-],C0517_A0090,A132065,161,434.15,C6H10N4O5,6,10,4,5,0,0,0,0,0,0,0
CC[n+]1c([N+](=O)[O-])cn(C)c1C.[O-][Cl+3]([O-])([O-])[O-],C0904_A0051,A132065,146,419.15,C7H12ClN3O6,7,12,3,6,0,0,0,1,0,0,0
CC[n+]1c([N+](=O)[O-])cn(C)c1C.O=[N+]([O-])[O-],C0904_A0090,A132065,65,338.15,C7H12N4O5,7,12,4,5,0,0,0,0,0,0,0
Cc1c(C)[n+](C)c(C)n1C.[I-],C0503_A0069,A132065,213,486.15,C8H15IN2,8,15,2,0,0,0,0,0,0,1,0
Cc1c(C)[n+](C)c(C)n1C.O=S(=O)([N-]S(=O)(=O)C(F)(F)F)C(F)(F)F,C0503_A0048,A132065,118,391.15,C10H15F6N3O4S2,10,15,3,4,2,0,6,0,0,0,0
Cc1c(C)[n+](C)c(C)n1C.F[P-](F)(F)(F)(F)F,C0503_A0011,A132065,166,439.15,C8H15F6N2P,8,15,2,0,0,1,6,0,0,0,0
CCCC[n+]1nn(C)c2ccccc21.O=S(=O)([N-]S(=O)(=O)C(F)(F)F)C(F)(F)F,C0459_A0048,A132065,29,302.15,C13H16F6N4O4S2,13,16,4,4,2,0,6,0,0,0,0
CCCC[n+]1nn(C)c2ccccc21.CS(=O)(=O)[O-],C0459_A0054,A132065,57,330.15,C12H19N3O3S,12,19,3,3,1,0,0,0,0,0,0
CCCC[n+]1nn(C)c2ccccc21.Cc1ccc(S(=O)(=O)[O-])cc1,C0459_A0030,A132065,120,393.15,C18H23N3O3S,18,23,3,3,1,0,0,0,0,0,0
Cn1n[n+](Cc2ccccc2)c2ccccc21.[Br-],C0235_A0004,A132065,173,446.15,C14H14BrN3,14,14,3,0,0,0,0,0,1,0,0
Cn1n[n+](Cc2ccccc2)c2ccccc21.O=S(=O)([N-]S(=O)(=O)C(F)(F)F)C(F)(F)F,C0235_A0048,A132065,69,342.15,C16H14F6N4O4S2,16,14,4,4,2,0,6,0,0,0,0
CS(=O)(=O)[O-].Cn1n[n+](Cc2ccccc2)c2ccccc21,C0235_A0054,A132065,92,365.15,C15H17N3O3S,15,17,3,3,1,0,0,0,0,0,0
Cc1ccc(S(=O)(=O)[O-])cc1.Cn1n[n+](Cc2ccccc2)c2ccccc21,C0235_A0030,A132065,143,416.15,C21H21N3O3S,21,21,3,3,1,0,0,0,0,0,0
Cn1cn[n+](CCN=[N+]=[N-])c1.[I-],C0826_A0069,A132065,54,327.15,C5H9IN6,5,9,6,0,0,0,0,0,0,1,0
C[n+]1cn(CCN=[N+]=[N-])cn1.[O-][Cl+3]([O-])([O-])[O-],C0583_A0051,A132065,63,336.15,C5H9ClN6O4,5,9,6,4,0,0,0,1,0,0,0
O=[N+]([O-])[O-].[N-]=[N+]=NCC[NH+]1C=NC=N1,C0178_A0090,A132065,99,372.15,C4H7N7O3,4,7,7,3,0,0,0,0,0,0,0
[Br-].[N-]=[N+]=NCC[n+]1cn(N)cn1,C0554_A0004,A132065,85,358.15,C4H8BrN7,4,8,7,0,0,0,0,0,1,0,0
O=[N+]([O-])[O-].[N-]=[N+]=NCC[n+]1cn(N)cn1,C0554_A0090,A132065,70,343.15,C4H8N8O3,4,8,8,3,0,0,0,0,0,0,0
CCCC[n+]1cn(CCC(F)(F)F)cn1.O=S(=O)([O-])C(F)(F)F,C0550_A0084,A132065,33,306.15,C10H15F6N3O3S,10,15,3,3,1,0,6,0,0,0,0
CCCC[n+]1cn(CCC(F)(F)F)cn1.O=S(=O)([N-]S(=O)(=O)C(F)(F)F)C(F)(F)F,C0550_A0048,A132065,69,342.15,C11H15F9N4O4S2,11,15,4,4,2,0,9,0,0,0,0
CCCCCCCn1c[n+](CCC(F)(F)C(F)(F)C(F)(F)C(F)(F)F)cn1.O=S(=O)([N-]S(=O)(=O)C(F)(F)F)C(F)(F)F,C0172_A0048,A132065,55,328.15,C17H21F15N4O4S2,17,21,4,4,2,0,15,0,0,0,0
CCCCCCCCCCn1c[n+](CCC(F)(F)C(F)(F)C(F)(F)C(F)(F)F)cn1.O=S(=O)([N-]S(=O)(=O)C(F)(F)F)C(F)(F)F,C0706_A0048,A132065,53,326.15,C20H27F15N4O4S2,20,27,4,4,2,0,15,0,0,0,0
Cn1c[n+](CCC(F)(F)C(F)(F)C(F)(F)C(F)(F)C(F)(F)C(F)(F)F)cn1.O=S(=O)([N-]S(=O)(=O)C(F)(F)F)C(F)(F)F,C0579_A0048,A132065,62,335.15,C13H9F19N4O4S2,13,9,4,4,2,0,19,0,0,0,0
CCCCn1c[n+](CCC(F)(F)C(F)(F)C(F)(F)C(F)(F)C(F)(F)C(F)(F)F)cn1.O=S(=O)([N-]S(=O)(=O)C(F)(F)F)C(F)(F)F,C0992_A0048,A132065,28,301.15,C16H15F19N4O4S2,16,15,4,4,2,0,19,0,0,0,0
CCCCCCCn1c[n+](CCC(F)(F)C(F)(F)C(F)(F)C(F)(F)C(F)(F)C(F)(F)F)cn1.O=S(=O)([N-]S(=O)(=O)C(F)(F)F)C(F)(F)F,C0074_A0048,A132065,22,295.15,C19H21F19N4O4S2,19,21,4,4,2,0,19,0,0,0,0
CCCCCCC[n+]1cn(C(C)F)cn1.F[B-](F)(F)F,C1094_A0020,A132065,52,325.15,C11H21BF5N3,11,21,3,0,0,0,5,0,0,0,0
CCCCCCCCCC[n+]1cn(C(C)F)cn1.O=S(=O)([O-])C(F)(F)F,C0522_A0084,A132065,46,319.15,C15H27F4N3O3S,15,27,3,3,1,0,4,0,0,0,0
CCCCCCCn1c[n+](CC(O)C(F)(F)F)cn1.[Br-],C0711_A0004,A132065,98,371.15,C12H21BrF3N3O,12,21,3,1,0,0,3,0,1,0,0
Cn1c[n+](C)cn1.O=[N+]([O-])[O-],C0593_A0090,A132065,1,274.15,C4H8N4O3,4,8,4,3,0,0,0,0,0,0,0
C[n+]1cn(N)cn1.[O-][Cl+3]([O-])([O-])[O-],C0391_A0051,A132065,86,359.15,C3H7ClN4O4,3,7,4,4,0,0,0,1,0,0,0
C[n+]1cn(N)cn1.O=[N+]([O-])[O-],C0391_A0090,A132065,54,327.15,C3H7N5O3,3,7,5,3,0,0,0,0,0,0,0
C[n+]1cn(N)cn1.[N-]=[N+]=[N-],C0391_A0073,A132065,43,316.15,C3H7N7,3,7,7,0,0,0,0,0,0,0,0
C[NH+]1C=NC(N=[N+]=[N-])=N1.[O-][Cl+3]([O-])([O-])[O-],C0125_A0051,A132065,55,328.15,C3H5ClN6O4,3,5,6,4,0,0,0,1,0,0,0
C[NH+]1C=NC(N=[N+]=[N-])=N1.O=[N+]([O-])[O-],C0125_A0090,A132065,66,339.15,C3H5N7O3,3,5,7,3,0,0,0,0,0,0,0
C[NH+]1C=NC(N=[N+]=[N-])=N1.O=C(O[N+](=O)[O-])c1nn[n-]n1,C0125_A0019,A132065,-38,235.15,C5H5N11O4,5,5,11,4,0,0,0,0,0,0,0
C[NH+]1C=NC(N=[N+]=[N-])=N1.O=C([O-])c1nc([N+](=O)[O-])c([N+](=O)[O-])[nH]1,C0125_A0035,A132065,80,353.15,C7H6N10O6,7,6,10,6,0,0,0,0,0,0,0
CC1=NC(N=[N+]=[N-])=N[NH2+]1.O=[N+]([O-])[O-],C0890_A0090,A132065,118,391.15,C3H5N7O3,3,5,7,3,0,0,0,0,0,0,0
O=[N+]([O-])[O-].[N-]=[N+]=NC1=N[NH2+]C=N1,C0689_A0090,A132065,147,420.15,C2H3N7O3,2,3,7,3,0,0,0,0,0,0,0
O=C([O-])c1nc([N+](=O)[O-])c([N+](=O)[O-])[nH]1.[N-]=[N+]=NC1=N[NH2+]C=N1,C0689_A0035,A132065,92,365.15,C6H4N10O6,6,4,10,6,0,0,0,0,0,0,0
O=[N+]([O-])[O-].[N-]=[N+]=NC1=N[NH2+]C(N=[N+]=[N-])=N1,C0771_A0090,A132065,97,370.15,C2H2N10O3,2,2,10,3,0,0,0,0,0,0,0
Cn1c[n+](C)nc1N=[N+]=[N-].[O-][Cl+3]([O-])([O-])[O-],C0175_A0051,A132065,68,341.15,C4H7ClN6O4,4,7,6,4,0,0,0,1,0,0,0
Cn1c[n+](C)nc1N=[N+]=[N-].O=[N+]([O-])[O-],C0175_A0090,A132065,98,371.15,C4H7N7O3,4,7,7,3,0,0,0,0,0,0,0
CCCn1c[n+](CCCCC(F)(F)C(F)(F)S(F)(F)(F)(F)F)cn1.O=S(=O)([N-]S(=O)(=O)C(F)(F)F)C(F)(F)F,C0781_A0048,A132065,-55,218.15,C13H17F15N4O4S3,13,17,4,4,3,0,15,0,0,0,0
N[NH+]1C=NC=N1.[O-][Cl+3]([O-])([O-])[O-],C0430_A0051,A132065,91,364.15,C2H5ClN4O4,2,5,4,4,0,0,0,1,0,0,0
N[NH+]1C=NC=N1.O=[N+]([O-])[O-],C0430_A0090,A132065,121,394.15,C2H5N5O3,2,5,5,3,0,0,0,0,0,0,0
O=C(O[N+](=O)[O-])c1nn[n-]n1.[NH3+]n1cnnc1,C0218_A0019,A132065,102,375.15,C4H5N9O4,4,5,9,4,0,0,0,0,0,0,0
O=C([O-])c1nc([N+](=O)[O-])c([N+](=O)[O-])[nH]1.[NH3+]n1cnnc1,C0218_A0035,A132065,137,410.15,C6H6N8O6,6,6,8,6,0,0,0,0,0,0,0
O=[N+]([O-])c1ncn[n-]1.[NH3+]n1cnnc1,C0218_A0014,A132065,64,337.15,C4H6N8O2,4,6,8,2,0,0,0,0,0,0,0
[NH3+]n1cnnc1.[O-][Cl+3]([O-])([O-])[O-],C0218_A0051,A132065,83,356.15,C2H5ClN4O4,2,5,4,4,0,0,0,1,0,0,0
O=[N+]([O-])[O-].[NH3+]n1cnnc1,C0218_A0090,A132065,69,342.15,C2H5N5O3,2,5,5,3,0,0,0,0,0,0,0
Cn1cn[n+](N)c1.[O-][Cl+3]([O-])([O-])[O-],C0326_A0051,A132065,108,381.15,C3H7ClN4O4,3,7,4,4,0,0,0,1,0,0,0
NC1=NC=N[NH+]1N.[O-][Cl+3]([O-])([O-])[O-],C0007_A0051,A132065,138,411.15,C2H6ClN5O4,2,6,5,4,0,0,0,1,0,0,0
NC1=NC=N[NH+]1N.O=[N+]([O-])[O-],C0007_A0090,A132065,159,432.15,C2H6N6O3,2,6,6,3,0,0,0,0,0,0,0
NC1=NC=N[NH+]1N.O=C([O-])c1nc([N+](=O)[O-])c([N+](=O)[O-])[nH]1,C0007_A0035,A132065,153,426.15,C6H7N9O6,6,7,9,6,0,0,0,0,0,0,0
C1=NC=N[NH2+]1.O=C([O-])c1nc([N+](=O)[O-])c([N+](=O)[O-])[nH]1,C0442_A0035,A132065,156,429.15,C6H5N7O6,6,5,7,6,0,0,0,0,0,0,0
C[NH+]1C=NC=N1.O=C([O-])c1nc([N+](=O)[O-])c([N+](=O)[O-])[nH]1,C0058_A0035,A132065,102,375.15,C7H7N7O6,7,7,7,6,0,0,0,0,0,0,0
CCCC[n+]1nn(CC)c2ccccc21.F[P-](F)(F)(F)(F)F,C1039_A0011,A132065,101,374.15,C12H18F6N3P,12,18,3,0,0,1,6,0,0,0,0
CCCCn1n[n+](CCCC)c2ccccc21.[Br-],C0322_A0004,A132065,88,361.15,C14H22BrN3,14,22,3,0,0,0,0,0,1,0,0
CCCCn1n[n+](CCCC)c2ccccc21.F[B-](F)(F)F,C0322_A0020,A132065,85,358.15,C14H22BF4N3,14,22,3,0,0,0,4,0,0,0,0
CCCCn1n[n+](CCCC)c2ccccc21.F[P-](F)(F)(F)(F)F,C0322_A0011,A132065,113,386.15,C14H22F6N3P,14,22,3,0,0,1,6,0,0,0,0
Cc1n(C)c(C(F)(F)F)n[n+]1CCCF.[I-],C1003_A0069,A132065,115,388.15,C8H12F4IN3,8,12,3,0,0,0,4,0,0,1,0
Cc1n(C)c(C(F)(F)F)n[n+]1CCCF.O=S(=O)([N-]S(=O)(=O)C(F)(F)F)C(F)(F)F,C1003_A0048,A132065,49,322.15,C10H12F10N4O4S2,10,12,4,4,2,0,10,0,0,0,0
Cc1n(C)nc(C(F)(F)C(F)(F)C(F)(F)C(F)(F)C(F)(F)C(F)(F)C(F)(F)C(F)(F)F)[n+]1C.[O-][Cl+3]([O-])([O-])[O-],C0277_A0051,A132065,90,363.15,C13H9ClF17N3O4,13,9,3,4,0,0,17,1,0,0,0
Cc1n(C)nc(C(F)(F)C(F)(F)C(F)(F)C(F)(F)C(F)(F)C(F)(F)C(F)(F)C(F)(F)F)[n+]1C.F[B-](F)(F)F,C0277_A0020,A132065,98,371.15,C13H9BF21N3,13,9,3,0,0,0,21,0,0,0,0
Cc1n(C)nc(C(F)(F)C(F)(F)C(F)(F)C(F)(F)C(F)(F)C(F)(F)C(F)(F)C(F)(F)F)[n+]1C.O=S(=O)([N-]S(=O)(=O)C(F)(F)F)C(F)(F)F,C0277_A0048,A132065,81,354.15,C15H9F23N4O4S2,15,9,4,4,2,0,23,0,0,0,0
Cc1n(C)c(C(F)(F)F)n[n+]1C.[O-][Cl+3]([O-])([O-])[O-],C0801_A0051,A132065,128,401.15,C6H9ClF3N3O4,6,9,3,4,0,0,3,1,0,0,0
Cc1n(C)c(C(F)(F)F)n[n+]1C.F[B-](F)(F)F,C0801_A0020,A132065,130,403.15,C6H9BF7N3,6,9,3,0,0,0,7,0,0,0,0
Cc1n(C)c(C(F)(F)F)n[n+]1C.O=S(=O)([N-]S(=O)(=O)C(F)(F)F)C(F)(F)F,C0801_A0048,A132065,70,343.15,C8H9F9N4O4S2,8,9,4,4,2,0,9,0,0,0,0
Cc1n(C)c(C(F)(F)F)n[n+]1C.O=S(=O)([O-])C(F)(F)F,C0801_A0084,A132065,137,410.15,C7H9F6N3O3S,7,9,3,3,1,0,6,0,0,0,0
Cn1cc[n+](N)n1.O=[N+]([O-])[O-],C0902_A0090,A132065,87,360.15,C3H7N5O3,3,7,5,3,0,0,0,0,0,0,0
Cn1cc[n+](N)n1.[N-]=[N+]=[N-],C0902_A0073,A132065,50,323.15,C3H7N7,3,7,7,0,0,0,0,0,0,0,0
CCn1cc[n+](N)n1.O=[N+]([O-])[O-],C0298_A0090,A132065,31,304.15,C4H9N5O3,4,9,5,3,0,0,0,0,0,0,0
CCCn1cc[n+](N)n1.O=[N+]([O-])[O-],C0154_A0090,A132065,34,307.15,C5H11N5O3,5,11,5,3,0,0,0,0,0,0,0
C=CCn1cc[n+](N)n1.O=[N+]([O-])[O-],C0936_A0090,A132065,10,283.15,C5H9N5O3,5,9,5,3,0,0,0,0,0,0,0
CCCCn1cc[n+](N)n1.O=[N+]([O-])[O-],C0216_A0090,A132065,49,322.15,C6H13N5O3,6,13,5,3,0,0,0,0,0,0,0
Nn1cn[n+](CCBr)c1.[Br-],C0405_A0004,A132065,131,404.15,C4H8Br2N4,4,8,4,0,0,0,0,0,2,0,0