IL_SMILES,NAME,ARTICLEID,IL-Tm (deg-C),IL-Tm (K),MolecularFormula,C,H,N,O,S,P,F,Cl,Br,I,Si
Cn1c(Br)c(Br)[n+](C)c1Br.[Br-],C0523_A0004,A132065,268,541.15,C5H6Br4N2,5,6,2,0,0,0,0,0,4,0,0
C[n+]1c(N)cn(-c2ccccc2)c1-c1ccccc1.[Br-],C1078_A0004,A132065,283,556.15,C16H16BrN3,16,16,3,0,0,0,0,0,1,0,0
Cc1n(C)cc[n+]1CC(=O)c1ccc(Cl)cc1.[Br-],C0323_A0004,A132065,201,474.15,C13H14BrClN2O,13,14,2,1,0,0,0,1,1,0,0
Cc1ccc(C(=O)C[n+]2ccn(-c3ccccc3)c2C)cc1.[Br-],C0498_A0004,A132065,206,479.15,C19H19BrN2O,19,19,2,1,0,0,0,0,1,0,0
Nc1cn(-c2ccccc2)c(-c2ccccc2)[n+]1-c1ccccc1.[Br-],C0702_A0004,A132065,283,556.15,C21H18BrN3,21,18,3,0,0,0,0,0,1,0,0
CC(=O)Nc1cn(-c2ccccc2)c(-c2ccccc2)[n+]1C.[Br-],C0842_A0004,A132065,272,545.15,C18H18BrN3O,18,18,3,1,0,0,0,0,1,0,0
Cc1c(CCO)[n+](Cc2ccccc2)cn1Cc1ccccc1.[Br-],C0487_A0004,A132065,135,408.15,C20H23BrN2O,20,23,2,1,0,0,0,0,1,0,0
Cc1ccc(-[n+]2c(N)cn(-c3ccccc3)c2-c2ccccc2)cc1.[Br-],C1158_A0004,A132065,268,541.15,C22H20BrN3,22,20,3,0,0,0,0,0,1,0,0
Cc1n(Cc2ccccc2)cc[n+]1CC(=O)c1ccc(Cl)cc1.[Br-],C0544_A0004,A132065,229,502.15,C19H18BrClN2O,19,18,2,1,0,0,0,1,1,0,0
COc1ccc(C(=O)C[n+]2ccn(Cc3ccccc3)c2C)cc1.[Br-],C0439_A0004,A132065,202,475.15,C20H21BrN2O2,20,21,2,2,0,0,0,0,1,0,0
COc1ccc(Cn2cc[n+](CC(=O)c3ccc(C)cc3)c2C)cc1.[Br-],C0317_A0004,A132065,225,498.15,C21H23BrN2O2,21,23,2,2,0,0,0,0,1,0,0
C=Cn1cc[n+](CC)c1.[Br-],C0639_A0004,A132065,100,373.15,C7H11BrN2,7,11,2,0,0,0,0,0,1,0,0
C=Cn1cc[n+](CCC)c1.[Br-],C0122_A0004,A132065,155,428.15,C8H13BrN2,8,13,2,0,0,0,0,0,1,0,0
C=C[n+]1ccn(CCCC)c1.[Br-],C0500_A0004,A132065,83,356.15,C9H15BrN2,9,15,2,0,0,0,0,0,1,0,0
Cn1cc[n+](C)c1-c1ccccc1.[Br-],C0461_A0004,A132065,284,557.15,C11H13BrN2,11,13,2,0,0,0,0,0,1,0,0
C[n+]1ccn(C(=O)c2ccccc2)c1.[Br-],C0795_A0004,A132065,89,362.15,C11H11BrN2O,11,11,2,1,0,0,0,0,1,0,0
O=C(C[n+]1ccn(O)c1)c1ccc(Cl)cc1.[Br-],C1127_A0004,A132065,202,475.15,C11H10BrClN2O2,11,10,2,2,0,0,0,1,1,0,0
On1cc[n+](Cc2ccc(Cl)cc2Cl)c1.[Br-],C0212_A0004,A132065,115,388.15,C10H9BrCl2N2O,10,9,2,1,0,0,0,2,1,0,0
COn1cc[n+](CC(=O)c2ccc(Cl)cc2)c1.[Br-],C0809_A0004,A132065,156,429.15,C12H12BrClN2O2,12,12,2,2,0,0,0,1,1,0,0
CCOn1cc[n+](CC(=O)c2ccc(Cl)cc2)c1.[Br-],C0646_A0004,A132065,130,403.15,C13H14BrClN2O2,13,14,2,2,0,0,0,1,1,0,0
CCOn1cc[n+](Cc2ccc(Cl)cc2Cl)c1.[Br-],C0860_A0004,A132065,134,407.15,C12H13BrCl2N2O,12,13,2,1,0,0,0,2,1,0,0
Cc1n(O)cc[n+]1CC(=O)c1ccc(Cl)cc1.[Br-],C0718_A0004,A132065,200,473.15,C12H12BrClN2O2,12,12,2,2,0,0,0,1,1,0,0
CCOn1cc[n+](Cc2ccc([N+](=O)[O-])cc2)c1.[Br-],C0467_A0004,A132065,120,393.15,C12H14BrN3O3,12,14,3,3,0,0,0,0,1,0,0
CCc1n(O)cc[n+]1CC(=O)c1ccc(Cl)cc1.[Br-],C0095_A0004,A132065,199,472.15,C13H14BrClN2O2,13,14,2,2,0,0,0,1,1,0,0
C=CCOn1cc[n+](Cc2ccc(Cl)cc2Cl)c1.[Br-],C0169_A0004,A132065,117,390.15,C13H13BrCl2N2O,13,13,2,1,0,0,0,2,1,0,0
COc1cc(C[n+]2ccn(O)c2)cc(OC)c1OC.[Br-],C0191_A0004,A132065,190,463.15,C13H17BrN2O4,13,17,2,4,0,0,0,0,1,0,0
COc1cc(C[n+]2ccn(OC)c2)cc(OC)c1OC.[Br-],C0839_A0004,A132065,138,411.15,C14H19BrN2O4,14,19,2,4,0,0,0,0,1,0,0
C=CCOn1cc[n+](Cc2ccc3c(c2)OCO3)c1.[Br-],C1009_A0004,A132065,137,410.15,C14H15BrN2O3,14,15,2,3,0,0,0,0,1,0,0
CN(C)c1ccc(C(=O)C[n+]2ccn(Oc3ccccc3)c2)cc1.[Br-],C0972_A0004,A132065,141,414.15,C19H20BrN3O2,19,20,3,2,0,0,0,0,1,0,0
CC(C)(C)C(=O)On1cc[n+](CC(=O)c2ccc(Cl)cc2)c1.[Br-],C0609_A0004,A132065,166,439.15,C16H18BrClN2O3,16,18,2,3,0,0,0,1,1,0,0
Clc1ccc(C[n+]2ccn(OCCc3ccccc3)c2)c(Cl)c1.[Br-],C0564_A0004,A132065,138,411.15,C18H17BrCl2N2O,18,17,2,1,0,0,0,2,1,0,0
CCc1n(Oc2ccccc2)cc[n+]1CC(=O)c1ccc(Cl)cc1.[Br-],C1052_A0004,A132065,171,444.15,C19H18BrClN2O2,19,18,2,2,0,0,0,1,1,0,0
Cc1n(OC(=O)C(C)(C)C)cc[n+]1CC(=O)c1ccc(Cl)cc1.[Br-],C0618_A0004,A132065,140,413.15,C17H20BrClN2O3,17,20,2,3,0,0,0,1,1,0,0
CCc1n(OC(=O)C(C)(C)C)cc[n+]1CC(=O)c1ccc(Cl)cc1.[Br-],C0238_A0004,A132065,184,457.15,C18H22BrClN2O3,18,22,2,3,0,0,0,1,1,0,0
Cc1n(OCc2ccc(Br)cc2)cc[n+]1OCc1ccc(Br)cc1.[Br-],C1055_A0004,A132065,174,447.15,C18H17Br3N2O2,18,17,2,2,0,0,0,0,3,0,0
CCc1n(OCc2ccccc2)cc[n+]1Cc1ccc(Cl)cc1Cl.[Br-],C0421_A0004,A132065,144,417.15,C19H19BrCl2N2O,19,19,2,1,0,0,0,2,1,0,0
CCc1n(OCc2ccc(Br)cc2)cc[n+]1OCc1ccc(Br)cc1.[Br-],C0014_A0004,A132065,170,443.15,C19H19Br3N2O2,19,19,2,2,0,0,0,0,3,0,0
CCc1n(OCc2ccccc2)cc[n+]1Cc1cc(OC)c(OC)c(OC)c1.[Br-],C0051_A0004,A132065,159,432.15,C22H27BrN2O4,22,27,2,4,0,0,0,0,1,0,0
Cc1n(OCc2ccc(Cl)cc2Cl)cc[n+]1CC(=O)c1ccc(Cl)cc1.[Br-],C0547_A0004,A132065,105,378.15,C19H16BrCl3N2O2,19,16,2,2,0,0,0,3,1,0,0
CCc1n(OCc2ccc(Cl)cc2Cl)cc[n+]1OCc1ccc(Cl)cc1Cl.[Br-],C0652_A0004,A132065,176,449.15,C19H17BrCl4N2O2,19,17,2,2,0,0,0,4,1,0,0
Cc1n(OCc2ccc(Cl)cc2Cl)cc[n+]1OCc1ccc(Cl)cc1Cl.[Br-],C1154_A0004,A132065,190,463.15,C18H15BrCl4N2O2,18,15,2,2,0,0,0,4,1,0,0
Cc1n(OCc2ccc([N+](=O)[O-])cc2)cc[n+]1OCc1ccc([N+](=O)[O-])cc1.[Br-],C1047_A0004,A132065,168,441.15,C18H17BrN4O6,18,17,4,6,0,0,0,0,1,0,0
CCc1n(OCc2ccc(Cl)cc2Cl)cc[n+]1Cc1ccc([N+](=O)[O-])cc1.[Br-],C0560_A0004,A132065,130,403.15,C19H18BrCl2N3O3,19,18,3,3,0,0,0,2,1,0,0
CCc1n(OCc2c(Cl)cccc2Cl)cc[n+]1OCc1c(Cl)cccc1Cl.[Br-],C1037_A0004,A132065,156,429.15,C19H17BrCl4N2O2,19,17,2,2,0,0,0,4,1,0,0
CCc1n(OCc2ccc([N+](=O)[O-])cc2)cc[n+]1OCc1ccc([N+](=O)[O-])cc1.[Br-],C1092_A0004,A132065,169,442.15,C19H19BrN4O6,19,19,4,6,0,0,0,0,1,0,0
Cn1c[n+](CC(=O)c2ccccc2)c(C(N)=O)c1N.[Br-],C0984_A0004,A132065,250,523.15,C13H15BrN4O2,13,15,4,2,0,0,0,0,1,0,0
Cn1c[n+](C)cc1Cl.[Br-],C0960_A0004,A132065,196,469.15,C5H8BrClN2,5,8,2,0,0,0,0,1,1,0,0
CCOC(=O)C(Cn1cc[n+](C)c1)=NO.[Br-],C1025_A0004,A132065,178,451.15,C9H14BrN3O3,9,14,3,3,0,0,0,0,1,0,0
Cc1n(C)cc[n+]1Cc1ccccc1C(=O)Oc1ccc([N+](=O)[O-])cc1.[Br-],C0783_A0004,A132065,224,497.15,C19H18BrN3O4,19,18,3,4,0,0,0,0,1,0,0
CCC1C(=O)OCC1Cc1c[n+](CCO)cn1C.[Br-],C0792_A0004,A132065,120,393.15,C13H21BrN2O3,13,21,2,3,0,0,0,0,1,0,0
CCC1C(=O)OCC1Cc1c[n+](Cc2cccc(C)c2)cn1C.[Br-],C0592_A0004,A132065,115,388.15,C19H25BrN2O2,19,25,2,2,0,0,0,0,1,0,0
CCC1C(=O)OCC1Cc1c[n+](Cc2ccccc2C)cn1C.[Br-],C0885_A0004,A132065,115,388.15,C19H25BrN2O2,19,25,2,2,0,0,0,0,1,0,0
CCC1C(=O)OCC1Cc1c[n+](CC(=O)c2ccccc2)cn1C.[Br-],C1132_A0004,A132065,49,322.15,C19H23BrN2O3,19,23,2,3,0,0,0,0,1,0,0
CCC1C(=O)OCC1Cc1c[n+](CCOc2ccccc2)cn1C.[Br-],C1069_A0004,A132065,82,355.15,C19H25BrN2O3,19,25,2,3,0,0,0,0,1,0,0
CCC1C(=O)OCC1Cc1c[n+](CCCOc2ccccc2)cn1C.[Br-],C0613_A0004,A132065,51,324.15,C20H27BrN2O3,20,27,2,3,0,0,0,0,1,0,0
CCC1C(=O)OCC1Cc1c[n+](Cc2cccc(Cl)c2)cn1C.[Br-],C0861_A0004,A132065,155,428.15,C18H22BrClN2O2,18,22,2,2,0,0,0,1,1,0,0
CCC1C(=O)OCC1Cc1c[n+](Cc2ccc([N+](=O)[O-])cc2)cn1C.[Br-],C0080_A0004,A132065,157,430.15,C18H22BrN3O4,18,22,3,4,0,0,0,0,1,0,0
CCC1C(=O)OCC1Cc1c[n+](Cc2cccc([N+](=O)[O-])c2)cn1C.[Br-],C0977_A0004,A132065,181,454.15,C18H22BrN3O4,18,22,3,4,0,0,0,0,1,0,0
CCC1C(=O)OCC1Cc1c[n+](CC(=O)c2ccc(F)cc2)cn1C.[Br-],C0894_A0004,A132065,91,364.15,C19H22BrFN2O3,19,22,2,3,0,0,1,0,1,0,0
COC(=O)C=Cc1ccc(C[n+]2ccn(C(C)=O)c2)cc1.[Br-],C0340_A0004,A132065,154,427.15,C16H17BrN2O3,16,17,2,3,0,0,0,0,1,0,0
CCOC(=O)n1cc[n+](Cc2ccc(C=CC(=O)OC)cc2)c1.[Br-],C0181_A0004,A132065,129,402.15,C17H19BrN2O4,17,19,2,4,0,0,0,0,1,0,0
COC(=O)C=Cc1ccc(C[n+]2ccn(C(=O)c3ccccc3)c2)cc1.[Br-],C1081_A0004,A132065,155,428.15,C21H19BrN2O3,21,19,2,3,0,0,0,0,1,0,0
CC(=O)n1cc[n+](Cc2ccccc2)c1.[Br-],C1123_A0004,A132065,126,399.15,C12H13BrN2O,12,13,2,1,0,0,0,0,1,0,0
ON=CC[n+]1cc[nH]c1C1OCCO1.[Br-],C0106_A0004,A132065,134,407.15,C8H12BrN3O3,8,12,3,3,0,0,0,0,1,0,0
Cn1cc[n+](CC=NO)c1C1OCCO1.[Br-],C0414_A0004,A132065,194,467.15,C9H14BrN3O3,9,14,3,3,0,0,0,0,1,0,0
Cc1n(CC2CC(c3ccccc3)(c3ccccc3)C(=O)O2)cc[n+]1Cc1ccccc1.[Br-],C0424_A0004,A132065,220,493.15,C28H27BrN2O2,28,27,2,2,0,0,0,0,1,0,0
CC(=O)N1CCC(c2cn(C(c3ccccc3)(c3ccccc3)c3ccccc3)c[n+]2CC(=O)c2ccccc2)CC1.[Br-],C0887_A0004,A132065,231,504.15,C37H36BrN3O2,37,36,3,2,0,0,0,0,1,0,0
Cn1cc[n+](CC(O)c2ccccc2)c1.[Br-],C0312_A0004,A132065,197,470.15,C12H15BrN2O,12,15,2,1,0,0,0,0,1,0,0
CCCCCCCn1cc[n+](CC(=O)c2ccc(NS(C)(=O)=O)cc2)c1.[Br-],C0403_A0004,A132065,79,352.15,C19H28BrN3O3S,19,28,3,3,1,0,0,0,1,0,0
C=CCn1cc(Cl)[n+](C)c1.[Br-],C0246_A0004,A132065,142,415.15,C7H10BrClN2,7,10,2,0,0,0,0,1,1,0,0
Cn1cc[n+](C2(C(C)(C)C)C=C(C(C)(C)C)C(=O)C(C(C)(C)C)=C2)c1.[Br-],C1021_A0004,A132065,180,453.15,C22H35BrN2O,22,35,2,1,0,0,0,0,1,0,0
Cc1cccc(C(=O)C[n+]2ccn(C)c2)c1.[Br-],C0019_A0004,A132065,186,459.15,C13H15BrN2O,13,15,2,1,0,0,0,0,1,0,0
Cc1ccccc1C(=O)C[n+]1ccn(C)c1.[Br-],C0126_A0004,A132065,153,426.15,C13H15BrN2O,13,15,2,1,0,0,0,0,1,0,0
Cn1cc[n+](CC(=O)c2ccco2)c1.[Br-],C0594_A0004,A132065,147,420.15,C10H11BrN2O2,10,11,2,2,0,0,0,0,1,0,0
Cc1ccc(C(=O)C[n+]2ccn(C)c2)cc1C.[Br-],C0382_A0004,A132065,164,437.15,C14H17BrN2O,14,17,2,1,0,0,0,0,1,0,0
Cc1ccc(C(=O)C[n+]2ccn(C)c2)c(C)c1.[Br-],C0929_A0004,A132065,180,453.15,C14H17BrN2O,14,17,2,1,0,0,0,0,1,0,0
Cn1cc[n+](CC(=O)c2ccc(Cl)cc2)c1.[Br-],C0343_A0004,A132065,149,422.15,C12H12BrClN2O,12,12,2,1,0,0,0,1,1,0,0
Cn1cc[n+](CC(=O)c2ccccc2F)c1.[Br-],C0261_A0004,A132065,179,452.15,C12H12BrFN2O,12,12,2,1,0,0,1,0,1,0,0
COc1ccc(C(=O)C[n+]2ccn(C)c2)cc1.[Br-],C1146_A0004,A132065,158,431.15,C13H15BrN2O2,13,15,2,2,0,0,0,0,1,0,0
Cn1cc[n+](CC(=O)c2cccc(Cl)c2)c1.[Br-],C0070_A0004,A132065,176,449.15,C12H12BrClN2O,12,12,2,1,0,0,0,1,1,0,0
CCOc1ccc(C(=O)C[n+]2ccn(C)c2)cc1.[Br-],C1099_A0004,A132065,145,418.15,C14H17BrN2O2,14,17,2,2,0,0,0,0,1,0,0
Cn1cc[n+](CC(=O)c2ccc(C#N)cc2)c1.[Br-],C0858_A0004,A132065,212,485.15,C13H12BrN3O,13,12,3,1,0,0,0,0,1,0,0
Cc1cc(C)c(C(=O)C[n+]2ccn(C)c2)c(C)c1.[Br-],C0184_A0004,A132065,223,496.15,C15H19BrN2O,15,19,2,1,0,0,0,0,1,0,0
Cn1cc[n+](CC(=O)c2cccc3ccccc23)c1.[Br-],C1124_A0004,A132065,231,504.15,C16H15BrN2O,16,15,2,1,0,0,0,0,1,0,0
Cn1cc[n+](CC(=O)c2ccc3ccccc3c2)c1.[Br-],C0366_A0004,A132065,239,512.15,C16H15BrN2O,16,15,2,1,0,0,0,0,1,0,0
COc1cccc(C(=O)C[n+]2ccn(C)c2)c1.[Br-],C0950_A0004,A132065,172,445.15,C13H15BrN2O2,13,15,2,2,0,0,0,0,1,0,0
CCOc1cccc(C(=O)C[n+]2ccn(C)c2)c1.[Br-],C1151_A0004,A132065,138,411.15,C14H17BrN2O2,14,17,2,2,0,0,0,0,1,0,0
COc1ccccc1C(=O)C[n+]1ccn(C)c1.[Br-],C0540_A0004,A132065,166,439.15,C13H15BrN2O2,13,15,2,2,0,0,0,0,1,0,0
CCCOc1cccc(C(=O)C[n+]2ccn(C)c2)c1.[Br-],C1063_A0004,A132065,85,358.15,C15H19BrN2O2,15,19,2,2,0,0,0,0,1,0,0
COc1cccc(C(=O)C[n+]2ccn(C(C)C)c2)c1.[Br-],C1145_A0004,A132065,178,451.15,C15H19BrN2O2,15,19,2,2,0,0,0,0,1,0,0
Cn1cc[n+](CC(=O)c2ccc(Cl)c(Cl)c2)c1.[Br-],C0653_A0004,A132065,184,457.15,C12H11BrCl2N2O,12,11,2,1,0,0,0,2,1,0,0
CC(=O)Nc1cccc(C(=O)C[n+]2ccn(C)c2)c1.[Br-],C1073_A0004,A132065,203,476.15,C14H16BrN3O2,14,16,3,2,0,0,0,0,1,0,0
COc1cc(OC)cc(C(=O)C[n+]2ccn(C)c2)c1.[Br-],C0691_A0004,A132065,240,513.15,C14H17BrN2O3,14,17,2,3,0,0,0,0,1,0,0
COc1ccc(C(=O)C[n+]2ccn(C)c2)cc1OC.[Br-],C1042_A0004,A132065,232,505.15,C14H17BrN2O3,14,17,2,3,0,0,0,0,1,0,0
COc1cccc(C(=O)C[n+]2ccn(-c3ccccc3)c2)c1.[Br-],C1155_A0004,A132065,147,420.15,C18H17BrN2O2,18,17,2,2,0,0,0,0,1,0,0
COc1cccc(C(=O)C[n+]2ccn(C)c2)c1OC.[Br-],C1023_A0004,A132065,216,489.15,C14H17BrN2O3,14,17,2,3,0,0,0,0,1,0,0
COc1ccc(OC)c(C(=O)C[n+]2ccn(C)c2)c1.[Br-],C0201_A0004,A132065,209,482.15,C14H17BrN2O3,14,17,2,3,0,0,0,0,1,0,0
COc1cccc(C(=O)C[n+]2ccn(C)c2SC(C)C)c1.[Br-],C0643_A0004,A132065,158,431.15,C16H21BrN2O2S,16,21,2,2,1,0,0,0,1,0,0
Cc1ccc(C(=O)C[n+]2cn(C)c(-c3ccccc3)c2-c2ccccc2)cc1.[Br-],C0912_A0004,A132065,182,455.15,C25H23BrN2O,25,23,2,1,0,0,0,0,1,0,0
Cc1n(CC(=O)c2ccc(Sc3ccccc3)cc2)cc[n+]1CC(=O)c1ccc(Sc2ccccc2)cc1.[Br-],C0785_A0004,A132065,251,524.15,C32H27BrN2O2S2,32,27,2,2,2,0,0,0,1,0,0
C=CCn1cc[n+](CCC#N)c1.[Br-],C0077_A0004,A132065,89,362.15,C9H12BrN3,9,12,3,0,0,0,0,0,1,0,0
Cc1cc(C)c(C)c(C(=O)Cn2cc[n+](CC(=O)c3c(C)c(C)cc(C)c3C)c2)c1C.[Br-],C0011_A0004,A132065,273,546.15,C27H33BrN2O2,27,33,2,2,0,0,0,0,1,0,0
Cn1cc[n+](CCCCCC(=O)O)c1.[Br-],C0375_A0004,A132065,104,377.15,C10H17BrN2O2,10,17,2,2,0,0,0,0,1,0,0
C=CC[n+]1cn(CCC#N)cc1-c1ccccc1.[Br-],C0648_A0004,A132065,116,389.15,C15H16BrN3,15,16,3,0,0,0,0,0,1,0,0
N#CCCC[n+]1cn(CCC#N)cc1-c1ccccc1.[Br-],C0877_A0004,A132065,132,405.15,C16H17BrN4,16,17,4,0,0,0,0,0,1,0,0
N#CCCn1cc(-c2ccccc2)[n+](Cc2ccccc2)c1.[Br-],C0590_A0004,A132065,174,447.15,C19H18BrN3,19,18,3,0,0,0,0,0,1,0,0
COC(=O)c1ccc(NC(=O)C[n+]2cn(CCC#N)cc2-c2ccccc2)cc1.[Br-],C0292_A0004,A132065,206,479.15,C22H21BrN4O3,22,21,4,3,0,0,0,0,1,0,0
Cc1n(O)cc(Br)[n+]1O.[Br-],C1096_A0004,A132065,154,427.15,C4H6Br2N2O2,4,6,2,2,0,0,0,0,2,0,0
On1cc[n+](O)c1Br.[Br-],C0725_A0004,A132065,181,454.15,C3H4Br2N2O2,3,4,2,2,0,0,0,0,2,0,0
Cc1c(C)[n+](O)c(Br)n1O.[Br-],C0041_A0004,A132065,152,425.15,C5H8Br2N2O2,5,8,2,2,0,0,0,0,2,0,0
N#Cc1n(O)cc(Br)[n+]1O.[Br-],C1113_A0004,A132065,161,434.15,C4H3Br2N3O2,4,3,3,2,0,0,0,0,2,0,0
On1cc(Br)[n+](O)c1-c1ccccc1.[Br-],C0276_A0004,A132065,158,431.15,C9H8Br2N2O2,9,8,2,2,0,0,0,0,2,0,0
Cc1c(C)[n+](Cc2ccc(F)cc2)cn1Cc1ccc(F)cc1.[Br-],C0361_A0004,A132065,250,523.15,C19H19BrF2N2,19,19,2,0,0,0,2,0,1,0,0
Cn1cc[n+](Cc2ccc(C(=O)c3ccccc3)cc2)c1.[Br-],C0045_A0004,A132065,94,367.15,C18H17BrN2O,18,17,2,1,0,0,0,0,1,0,0
Cc1ccccc1C[n+]1ccn(CCC(C(N)=O)(c2ccccc2)c2ccccc2)c1C.[Br-],C0200_A0004,A132065,225,498.15,C28H30BrN3O,28,30,3,1,0,0,0,0,1,0,0
Cc1n(CCCC(C(N)=O)(c2ccccc2)c2ccccc2)cc[n+]1Cc1ccccc1.[Br-],C1111_A0004,A132065,172,445.15,C28H30BrN3O,28,30,3,1,0,0,0,0,1,0,0
Cc1n(CCC(C(N)=O)(c2ccccc2)c2ccccc2)cc[n+]1Cc1ccccc1Cl.[Br-],C0300_A0004,A132065,199,472.15,C27H27BrClN3O,27,27,3,1,0,0,0,1,1,0,0
Cc1cccc(C[n+]2ccn(CCC(C(N)=O)(c3ccccc3)c3ccccc3)c2C)c1.[Br-],C0683_A0004,A132065,211,484.15,C28H30BrN3O,28,30,3,1,0,0,0,0,1,0,0
Cc1n(CCC(C(N)=O)(c2ccccc2)c2ccccc2)cc[n+]1Cc1cccc(Cl)c1.[Br-],C0808_A0004,A132065,222,495.15,C27H27BrClN3O,27,27,3,1,0,0,0,1,1,0,0
Cc1n(CCC(C(N)=O)(c2ccccc2)c2ccccc2)cc[n+]1Cc1ccc(Cl)cc1.[Br-],C0874_A0004,A132065,134,407.15,C27H27BrClN3O,27,27,3,1,0,0,0,1,1,0,0
Cc1n(CCCCC(C(N)=O)(c2ccccc2)c2ccccc2)cc[n+]1Cc1ccccc1.[Br-],C0900_A0004,A132065,156,429.15,C29H32BrN3O,29,32,3,1,0,0,0,0,1,0,0
Cc1n(CCC(C(N)=O)(c2ccccc2)c2ccccc2)cc[n+]1Cc1ccc([N+](=O)[O-])cc1.[Br-],C0466_A0004,A132065,216,489.15,C27H27BrN4O3,27,27,4,3,0,0,0,0,1,0,0
CC(C)(C)[n+]1ccn(Cc2ccccn2)c1.[Br-],C0255_A0004,A132065,65,338.15,C13H18BrN3,13,18,3,0,0,0,0,0,1,0,0
CCN(CC)C(=O)C[n+]1ccn(C(C)(C)C)c1.[Br-],C0463_A0004,A132065,118,391.15,C13H24BrN3O,13,24,3,1,0,0,0,0,1,0,0
Cn1cc[n+](Cc2ccccc2)c1Sc1ccccc1.[Br-],C0585_A0004,A132065,107,380.15,C17H17BrN2S,17,17,2,0,1,0,0,0,1,0,0
CCN(CC)C(=O)C[n+]1ccn(-c2c(C)cc(C)cc2C)c1.[Br-],C0966_A0004,A132065,175,448.15,C18H26BrN3O,18,26,3,1,0,0,0,0,1,0,0
CC(C)(C)c1cc(Cn2cc[n+](C(C)(C)C)c2)c(N)c(C(C)(C)C)c1.[Br-],C0236_A0004,A132065,184,457.15,C22H36BrN3,22,36,3,0,0,0,0,0,1,0,0
CC(C)(C)c1cc(Cn2cc[n+](C(C)(C)C)c2)c([N+](=O)[O-])c(C(C)(C)C)c1.[Br-],C1010_A0004,A132065,184,457.15,C22H34BrN3O2,22,34,3,2,0,0,0,0,1,0,0
CC[n+]1ccn(CCc2ccccc2)c1.[Br-],C0105_A0004,A132065,43,316.15,C13H17BrN2,13,17,2,0,0,0,0,0,1,0,0
[Br-].c1ccc(Cn2cc[n+](Cc3ccccc3)c2Sc2ccccc2)cc1,C0335_A0004,A132065,171,444.15,C23H21BrN2S,23,21,2,0,1,0,0,0,1,0,0
CC(C[n+]1ccn(C)c1)=NO.[Br-],C0254_A0004,A132065,167,440.15,C7H12BrN3O,7,12,3,1,0,0,0,0,1,0,0
CC[n+]1ccn(C(CO)C(C)C)c1.[Br-],C0828_A0004,A132065,12,285.15,C10H19BrN2O,10,19,2,1,0,0,0,0,1,0,0
CC[n+]1ccn(C(CO)CC(C)C)c1.[Br-],C0794_A0004,A132065,16,289.15,C11H21BrN2O,11,21,2,1,0,0,0,0,1,0,0
Cc1cc(C)c(-n2cc[n+](-c3c(C)cc(C)cc3C)c2)c(C)c1.[Br-],C0799_A0004,A132065,308,581.15,C21H25BrN2,21,25,2,0,0,0,0,0,1,0,0
CCCCCCCCCCCCCCCCn1cc[n+](CC(C)=NO)c1.[Br-],C0065_A0004,A132065,124,397.15,C22H42BrN3O,22,42,3,1,0,0,0,0,1,0,0
CCCCCCCCCCCCCCCCCCOCC(COC[n+]1ccn(C)c1)OCCCCCCCCCCCCCCCCCC.[Br-],C1028_A0004,A132065,79,352.15,C44H87BrN2O3,44,87,2,3,0,0,0,0,1,0,0
Cc1cscc1OCCC[n+]1ccn(C)c1C.[Br-],C0704_A0004,A132065,118,391.15,C13H19BrN2OS,13,19,2,1,1,0,0,0,1,0,0
COC(=O)Cn1cc(C(=O)OC)[n+](CC(=O)OC)c1.[Br-],C0506_A0004,A132065,131,404.15,C11H15BrN2O6,11,15,2,6,0,0,0,0,1,0,0
COC(=O)Cn1cc(C(=O)Nc2ccccc2)[n+](CC(=O)OC)c1.[Br-],C1088_A0004,A132065,183,456.15,C16H18BrN3O5,16,18,3,5,0,0,0,0,1,0,0
CCCCCCCCCCCC(=O)NCCCCC(NC(=O)CCCCCCCCCC[n+]1ccn(C)c1)C(=O)OCC.[Br-],C0967_A0004,A132065,81,354.15,C35H65BrN4O4,35,65,4,4,0,0,0,0,1,0,0
C[n+]1ccn(Cc2cc3ccc2CCc2ccc(c(C4=NC(C)(C)CO4)c2)CC3)c1.[Br-],C0339_A0004,A132065,112,385.15,C26H30BrN3O,26,30,3,1,0,0,0,0,1,0,0
CCCCCCCCCCCC(=O)NCCCCC(NC(=O)CCCCC)C(=O)OCCCCCCCCCCC[n+]1ccn(C)c1.[Br-],C0974_A0004,A132065,79,352.15,C39H73BrN4O4,39,73,4,4,0,0,0,0,1,0,0
C#CC[n+]1ccn(C=C)c1.[Br-],C0949_A0004,A132065,158,431.15,C8H9BrN2,8,9,2,0,0,0,0,0,1,0,0
C#CC[n+]1ccn(CC=C)c1.[Br-],C0097_A0004,A132065,66,339.15,C9H11BrN2,9,11,2,0,0,0,0,0,1,0,0
CC(C)Cn1cc[n+](CC(C)C)c1.[Br-],C0954_A0004,A132065,85,358.15,C11H21BrN2,11,21,2,0,0,0,0,0,1,0,0
CCCCCCNC(=O)Cn1cc[n+](CC(=O)NCCCCCC)c1.[Br-],C0289_A0004,A132065,132,405.15,C19H35BrN4O2,19,35,4,2,0,0,0,0,1,0,0
Cc1cc(C)c(-[n+]2ccn(Cc3cc4ccc3CCc3ccc(c(P(c5ccccc5)c5ccccc5)c3)CC4)c2)c(C)c1.[Br-],C1043_A0004,A132065,275,548.15,C41H40BrN2P,41,40,2,0,0,1,0,0,1,0,0
C=CCn1cc[n+](CCC)c1.[Br-],C1012_A0004,A132065,30,303.15,C9H15BrN2,9,15,2,0,0,0,0,0,1,0,0
C#CCn1cc[n+](CC#C)c1.[Br-],C0253_A0004,A132065,142,415.15,C9H9BrN2,9,9,2,0,0,0,0,0,1,0,0
C=CCn1cc[n+](CCCCC)c1.[Br-],C0931_A0004,A132065,21,294.15,C11H19BrN2,11,19,2,0,0,0,0,0,1,0,0
CCCCCCCCCCCCn1cc[n+](CCC(C)CCC=C(C)C)c1.[Br-],C0026_A0004,A132065,6,279.15,C25H47BrN2,25,47,2,0,0,0,0,0,1,0,0
CCCCCCCCCCCCCCCCCCn1cc[n+](CCC(C)CCC=C(C)C)c1.[Br-],C0144_A0004,A132065,41,314.15,C31H59BrN2,31,59,2,0,0,0,0,0,1,0,0
CC(=O)c1sc(Nc2ccccc2)c(-n2cc[n+](CC(=O)c3ccccc3)c2)c1-c1ccccc1.[Br-],C0275_A0004,A132065,199,472.15,C29H24BrN3O2S,29,24,3,2,1,0,0,0,1,0,0
CCOC(=O)CCCn1c(C)[n+](Cc2ccccc2)c2ccccc21.[Br-],C0107_A0004,A132065,231,504.15,C21H25BrN2O2,21,25,2,2,0,0,0,0,1,0,0
CCCCCCCCCCCC[n+]1cn(CC)c2ccccc21.[Br-],C0417_A0004,A132065,71,344.15,C21H35BrN2,21,35,2,0,0,0,0,0,1,0,0
C[n+]1c(-c2ccccc2C(=O)O)[nH]c2ccccc21.[Br-],C0909_A0004,A132065,270,543.15,C15H13BrN2O2,15,13,2,2,0,0,0,0,1,0,0
CCCCCCCCCn1c[n+](CCCCCCCCC)c2ccccc21.[Br-],C1126_A0004,A132065,97,370.15,C25H43BrN2,25,43,2,0,0,0,0,0,1,0,0
CCCCCCCCCCCCCCCC[n+]1cn(CC)c2ccccc21.[Br-],C0827_A0004,A132065,67,340.15,C25H43BrN2,25,43,2,0,0,0,0,0,1,0,0
Cn1c(-c2ccc([N+](=O)[O-])cc2)[n+](C)c2cc([N+](=O)[O-])ccc21.[Br-],C0093_A0004,A132065,255,528.15,C15H13BrN4O4,15,13,4,4,0,0,0,0,1,0,0
Cn1c(C(F)(F)F)[n+](C)c2ccccc21.[Br-],C0224_A0004,A132065,260,533.15,C10H10BrF3N2,10,10,2,0,0,0,3,0,1,0,0
CCc1n(C)c2ccc([N+](=O)[O-])cc2[n+]1C.[Br-],C0195_A0004,A132065,245,518.15,C11H14BrN3O2,11,14,3,2,0,0,0,0,1,0,0
CCn1c(C)[n+](CCC=O)c2cc(Cl)c(Cl)cc21.[Br-],C0116_A0004,A132065,280,553.15,C13H15BrCl2N2O,13,15,2,1,0,0,0,2,1,0,0
Cn1c(C(F)(F)F)[n+](C)c2cc(Cl)ccc21.[Br-],C1143_A0004,A132065,192,465.15,C10H9BrClF3N2,10,9,2,0,0,0,3,1,1,0,0
Cn1c(C(F)(F)F)[n+](C)c2c(Br)c(Br)c(Br)c(Br)c21.[Br-],C0477_A0004,A132065,213,486.15,C10H6Br5F3N2,10,6,2,0,0,0,3,0,5,0,0
CCn1c(Cc2ccccc2)[n+](CCC(C)=O)c2cc(Cl)c(Cl)cc21.[Br-],C0744_A0004,A132065,173,446.15,C20H21BrCl2N2O,20,21,2,1,0,0,0,2,1,0,0
CCOC(=O)C[n+]1c(-c2ccc(-c3ccc(Cl)cc3)o2)n(C)c2ccc(C#N)cc21.[Br-],C0027_A0004,A132065,207,480.15,C23H19BrClN3O3,23,19,3,3,0,0,0,1,1,0,0
CCOC(=O)C[n+]1c(-c2ccc(-c3ccc(Cl)cc3)o2)n(C)c2ccc(C(=O)OC)cc21.[Br-],C1141_A0004,A132065,209,482.15,C24H22BrClN2O5,24,22,2,5,0,0,0,1,1,0,0
CCOC(=O)C[n+]1c(-c2ccc(-c3ccc(Cl)cc3)o2)n(C)c2ccc(S(C)(=O)=O)cc21.[Br-],C0670_A0004,A132065,225,498.15,C23H22BrClN2O5S,23,22,2,5,1,0,0,1,1,0,0
CCN1C(=CC=Cc2n(CCOC(C)=O)c3ccc(C#N)cc3[n+]2CCO)N(CC)c2cc(C#N)ccc21.[Br-],C0037_A0004,A132065,188,461.15,C29H31BrN6O3,29,31,6,3,0,0,0,0,1,0,0
CCN1C(=CC=Cc2n(CC)c3c(Br)c(Br)c(Br)c(Br)c3[n+]2CC)N(CC)c2c(Br)c(Br)c(Br)c(Br)c21.[Br-],C0207_A0004,A132065,215,488.15,C25H23Br9N4,25,23,4,0,0,0,0,0,9,0,0
CCN1C(=CC=Cc2n(CC)c3c(Br)c(Cl)c(Cl)c(Br)c3[n+]2CC)N(CC)c2c(Br)c(Cl)c(Cl)c(Br)c21.[Br-],C0384_A0004,A132065,283,556.15,C25H23Br5Cl4N4,25,23,4,0,0,0,0,4,5,0,0
CCN1C(=CC=Cc2n(CCOC(C)=O)c3ccc(C#N)cc3[n+]2CCOC(C)=O)N(CC)c2cc(Cl)c(Cl)cc21.[Br-],C0453_A0004,A132065,163,436.15,C30H32BrCl2N5O4,30,32,5,4,0,0,0,2,1,0,0
CCNS(=O)(=O)c1ccc2c(c1)[n+](CCCCS(=O)(=O)NC(C)=O)c(C=CC=C1Oc3cc(C)c(C)cc3N1CC)n2CC.[Br-],C0133_A0004,A132065,153,426.15,C31H42BrN5O6S2,31,42,5,6,2,0,0,0,1,0,0
CCN1C(=CC=Cc2n(CC)c3cc(Cl)c(Cl)cc3[n+]2CCOCCC(=O)O)N(CCOCCC(=O)O)c2cc(Cl)c(Cl)cc21.[Br-],C0732_A0004,A132065,225,498.15,C31H35BrCl4N4O6,31,35,4,6,0,0,0,4,1,0,0