IL_SMILES,NAME,ARTICLEID,IL-Tm (deg-C),IL-Tm (K),MolecularFormula,C,H,N,O,S,P,F,Cl,Br,I,Si
CCCCC[N+](C)(C)CC.O=S(=O)([N-]S(=O)(=O)C(F)(F)F)C(F)(F)F,C0471_A0048,A132065,-8,265.15,C11H22F6N2O4S2,11,22,2,4,2,0,6,0,0,0,0
CC[N+](C)(CC)CCCC(F)(F)F.O=S(=O)([N-]S(=O)(=O)C(F)(F)F)C(F)(F)F,C0649_A0048,A132065,36,309.15,C11H19F9N2O4S2,11,19,2,4,2,0,9,0,0,0,0
CCCC[P+](CCCC)(CCCC)CCCC.c1ccc2[n-]cnc2c1,C1199_A0179,A132065,71,344.15,C23H41N2P,23,41,2,0,0,1,0,0,0,0,0
Brc1ccc2[n-]cnc2c1.CCCC[P+](CCCC)(CCCC)CCCC,C1199_A0180,A132065,69,342.15,C23H40BrN2P,23,40,2,0,0,1,0,0,1,0,0
CC[P+](CC)(CC)CC.c1ccc2[n-]cnc2c1,C0872_A0179,A132065,166,439.15,C15H25N2P,15,25,2,0,0,1,0,0,0,0,0
C[n+]1cccc2ccc3cccnc3c21.O=S(=O)([N-]S(=O)(=O)C(F)(F)F)C(F)(F)F,C1977_A0048,A132065,69,342.15,C15H11F6N3O4S2,15,11,3,4,2,0,6,0,0,0,0
C1CC[NH2+]C1.F[B-](F)(F)F,C1167_A0020,A132065,74,347.15,C4H10BF4N,4,10,1,0,0,0,4,0,0,0,0
C1CC[NH2+]C1.O=S(=O)([O-])C(F)(F)F,C1167_A0084,A132065,109,382.15,C5H10F3NO3S,5,10,1,3,1,0,3,0,0,0,0
C1CC[NH2+]C1.O=S(=O)([O-])C(F)(F)C(F)(F)C(F)(F)C(F)(F)F,C1167_A0079,A132065,148,421.15,C8H10F9NO3S,8,10,1,3,1,0,9,0,0,0,0
C1CC[NH2+]C1.O=S(=O)([O-])C(F)(F)C(F)(F)C(F)(F)C(F)(F)C(F)(F)C(F)(F)F,C1167_A0207,A132065,110,383.15,C10H10F13NO3S,10,10,1,3,1,0,13,0,0,0,0
C1CC[NH2+]C1.O=S(=O)([O-])C(F)(F)C(F)(F)C(F)(F)C(F)(F)C(F)(F)C(F)(F)C(F)(F)C(F)(F)F,C1167_A0096,A132065,120,393.15,C12H10F17NO3S,12,10,1,3,1,0,17,0,0,0,0
Cc1n(Cn2cccn2)cc[n+]1CCC(F)(F)F.O=S(=O)([N-]S(=O)(=O)C(F)(F)F)C(F)(F)F,C1980_A0048,A132065,85,358.15,C13H14F9N5O4S2,13,14,5,4,2,0,9,0,0,0,0
Cc1n(Cn2cccn2)cc[n+]1CCCC(F)(F)F.O=S(=O)([N-]S(=O)(=O)C(F)(F)F)C(F)(F)F,C1982_A0048,A132065,75,348.15,C14H16F9N5O4S2,14,16,5,4,2,0,9,0,0,0,0
Cc1n(Cn2cccn2)cc[n+]1CCC(F)(F)C(F)(F)C(F)(F)C(F)(F)F.O=S(=O)([N-]S(=O)(=O)C(F)(F)F)C(F)(F)F,C1984_A0048,A132065,112,385.15,C16H14F15N5O4S2,16,14,5,4,2,0,15,0,0,0,0
Cc1n(Cn2cccn2)cc[n+]1CCCC(F)(F)F.F[P-](F)(F)(F)(F)F,C1982_A0011,A132065,114,387.15,C12H16F9N4P,12,16,4,0,0,1,9,0,0,0,0
Cc1cc(C)n(Cn2cc[n+](C)c2C)n1.O=S(=O)([N-]S(=O)(=O)C(F)(F)F)C(F)(F)F,C1985_A0048,A132065,80,353.15,C13H17F6N5O4S2,13,17,5,4,2,0,6,0,0,0,0
Cc1cc(C)n(Cn2cc[n+](C)c2C)n1.F[P-](F)(F)(F)(F)F,C1985_A0011,A132065,163,436.15,C11H17F6N4P,11,17,4,0,0,1,6,0,0,0,0
CCC[N+]1(C)CCCC1.O=S(=O)([N-]S(=O)(=O)C(F)(F)F)C(F)(F)F,C0152_A0048,A132065,7,280.15,C10H18F6N2O4S2,10,18,2,4,2,0,6,0,0,0,0
CCC[N+]1(C)CCCCC1.O=S(=O)([N-]S(=O)(=O)C(F)(F)F)C(F)(F)F,C0155_A0048,A132065,9,282.15,C11H20F6N2O4S2,11,20,2,4,2,0,6,0,0,0,0
CCCCn1cc(C[n+]2ccn(C)c2C)nn1.F[P-](F)(F)(F)(F)F,C1988_A0011,A132065,74,347.15,C12H20F6N5P,12,20,5,0,0,1,6,0,0,0,0
Cc1n(C)cc[n+]1Cc1cn(Cc2ccccc2)nn1.F[P-](F)(F)(F)(F)F,C1990_A0011,A132065,114,387.15,C15H18F6N5P,15,18,5,0,0,1,6,0,0,0,0
Cn1cc[n+](Cc2cn(Cc3ccccc3)nn2)c1.F[P-](F)(F)(F)(F)F,C1991_A0011,A132065,85,358.15,C14H16F6N5P,14,16,5,0,0,1,6,0,0,0,0
CCCCn1cc[n+](Cc2cn(Cc3ccccc3)nn2)c1.F[P-](F)(F)(F)(F)F,C1992_A0011,A132065,87,360.15,C17H22F6N5P,17,22,5,0,0,1,6,0,0,0,0
CCCCn1cc[n+](Cc2cn(-c3ccccc3)nn2)c1.F[P-](F)(F)(F)(F)F,C1993_A0011,A132065,113,386.15,C16H20F6N5P,16,20,5,0,0,1,6,0,0,0,0
Cc1cc(C)c(-n2cc[n+](Cc3cn(Cc4ccccc4)nn3)c2)c(C)c1.F[P-](F)(F)(F)(F)F,C1996_A0011,A132065,48,321.15,C22H24F6N5P,22,24,5,0,0,1,6,0,0,0,0
C[n+]1ccn(CCC(F)(F)C(F)(F)C(F)(F)C(F)(F)C(F)(F)C(F)(F)F)c1.O=S(=O)([N-]S(=O)(=O)C(F)(F)C(F)(F)F)C(F)(F)C(F)(F)F,C1188_A0067,A132065,38,311.15,C16H10F23N3O4S2,16,10,3,4,2,0,23,0,0,0,0
CC[NH+](CC)CC.O=[PH]([O-])O,C0473_A0320,A132065,43,316.15,C6H18NO3P,6,18,1,3,0,1,0,0,0,0,0
CC[NH+](CC)CC.Cc1ccc(S(=O)(=O)[O-])cc1,C0473_A0030,A132065,68,341.15,C13H23NO3S,13,23,1,3,1,0,0,0,0,0,0
CC[NH+](CC)CC.O=C([O-])C(F)(F)F,C0473_A0064,A132065,9,282.15,C8H16F3NO2,8,16,1,2,0,0,3,0,0,0,0
O=S(=O)([N-]S(=O)(=O)C(F)(F)F)C(F)(F)F.c1ccc([P+](c2ccccc2)(c2ccccc2)c2ccccc2)cc1,C1272_A0048,A132065,134,407.15,C26H20F6NO4PS2,26,20,1,4,2,1,6,0,0,0,0
C[N+](C)(C)CCN=[N+]=[N-].N#C[N-][N+](=O)[O-],C2000_A0261,A132065,28,301.15,C6H13N7O2,6,13,7,2,0,0,0,0,0,0,0
C[N+](C)(C)CCN=[N+]=[N-].N#C[N-]C#N,C2000_A0056,A132065,9,282.15,C7H13N7,7,13,7,0,0,0,0,0,0,0,0
C[N+](C)(C)CCN=[N+]=[N-].[N-]=[N+]=[N-],C2000_A0073,A132065,92,365.15,C5H13N7,5,13,7,0,0,0,0,0,0,0,0
N#C[N-][N+](=O)[O-].[N-]=[N+]=NCC[NH2+]CCN=[N+]=[N-],C2003_A0261,A132065,58,331.15,C5H10N10O2,5,10,10,2,0,0,0,0,0,0,0
CC[NH+](CC)CC.[N-]=[N+]=[N-],C0473_A0073,A132065,80,353.15,C6H16N4,6,16,4,0,0,0,0,0,0,0,0
CC(C)[NH+](C)C.[N-]=[N+]=[N-],C2004_A0073,A132065,75,348.15,C5H14N4,5,14,4,0,0,0,0,0,0,0,0
C#CCn1cc[n+](C)c1.N#C[N-]C#N,C0733_A0056,A132065,17,290.15,C9H9N5,9,9,5,0,0,0,0,0,0,0,0
CC#CC[n+]1ccn(C)c1.N#C[N-]C#N,C2006_A0056,A132065,49,322.15,C10H11N5,10,11,5,0,0,0,0,0,0,0,0
CCC#CC[n+]1ccn(C)c1.N#C[N-]C#N,C2007_A0056,A132065,59,332.15,C11H13N5,11,13,5,0,0,0,0,0,0,0,0
CC[n+]1ccn(C)c1.FC(F)(F)c1cc([B-](c2cc(C(F)(F)F)cc(C(F)(F)F)c2)(c2cc(C(F)(F)F)cc(C(F)(F)F)c2)c2cc(C(F)(F)F)cc(C(F)(F)F)c2)cc(C(F)(F)F)c1,C0460_A0006,A132065,140,413.15,C38H23BF24N2,38,23,2,0,0,0,24,0,0,0,0
CC[n+]1ccn(C)c1.FC(F)(F)C(O[Al-](OC(C(F)(F)F)(C(F)(F)F)C(F)(F)F)(OC(C(F)(F)F)(C(F)(F)F)C(F)(F)F)OC(C(F)(F)F)(C(F)(F)F)C(F)(F)F)(C(F)(F)F)C(F)(F)F,C0460_A0327,A132065,175,448.15,C22H11AlF36N2O4,22,11,2,4,0,0,36,0,0,0,0
CCCCCC[n+]1ccn(C)c1.FC(F)(F)C(O[Al-](OC(C(F)(F)F)(C(F)(F)F)C(F)(F)F)(OC(C(F)(F)F)(C(F)(F)F)C(F)(F)F)OC(C(F)(F)F)(C(F)(F)F)C(F)(F)F)(C(F)(F)F)C(F)(F)F,C0190_A0327,A132065,68,341.15,C26H19AlF36N2O4,26,19,2,4,0,0,36,0,0,0,0
CC[n+]1cn(C)c2ccccc21.FC(F)(F)c1cc([B-](c2cc(C(F)(F)F)cc(C(F)(F)F)c2)(c2cc(C(F)(F)F)cc(C(F)(F)F)c2)c2cc(C(F)(F)F)cc(C(F)(F)F)c2)cc(C(F)(F)F)c1,C2020_A0006,A132065,109,382.15,C42H25BF24N2,42,25,2,0,0,0,24,0,0,0,0
CC[n+]1cn(C)c2ccccc21.FC(F)(F)C(O[Al-](OC(C(F)(F)F)(C(F)(F)F)C(F)(F)F)(OC(C(F)(F)F)(C(F)(F)F)C(F)(F)F)OC(C(F)(F)F)(C(F)(F)F)C(F)(F)F)(C(F)(F)F)C(F)(F)F,C2020_A0327,A132065,215,488.15,C26H13AlF36N2O4,26,13,2,4,0,0,36,0,0,0,0
CC[N+]1=C(C)N(C)CC1.FC(F)(F)c1cc([B-](c2cc(C(F)(F)F)cc(C(F)(F)F)c2)(c2cc(C(F)(F)F)cc(C(F)(F)F)c2)c2cc(C(F)(F)F)cc(C(F)(F)F)c2)cc(C(F)(F)F)c1,C2021_A0006,A132065,136,409.15,C39H27BF24N2,39,27,2,0,0,0,24,0,0,0,0
CC[N+]1=C(C)N(C)CC1.FC(F)(F)C(O[Al-](OC(C(F)(F)F)(C(F)(F)F)C(F)(F)F)(OC(C(F)(F)F)(C(F)(F)F)C(F)(F)F)OC(C(F)(F)F)(C(F)(F)F)C(F)(F)F)(C(F)(F)F)C(F)(F)F,C2021_A0327,A132065,216,489.15,C23H15AlF36N2O4,23,15,2,4,0,0,36,0,0,0,0
CC[N+]1=C2CCCN2CCC1.O=S(=O)([N-]S(=O)(=O)C(F)(F)F)C(F)(F)F,C2015_A0048,A132065,24,297.15,C11H17F6N3O4S2,11,17,3,4,2,0,6,0,0,0,0
CCC[N+]1=C2CCCN2CCC1.O=S(=O)([N-]S(=O)(=O)C(F)(F)F)C(F)(F)F,C2016_A0048,A132065,16,289.15,C12H19F6N3O4S2,12,19,3,4,2,0,6,0,0,0,0
CCCC[N+]1=C2CCCN2CCC1.O=S(=O)([N-]S(=O)(=O)C(F)(F)F)C(F)(F)F,C2017_A0048,A132065,24,297.15,C13H21F6N3O4S2,13,21,3,4,2,0,6,0,0,0,0
CC[N+]1=C2CCCCCN2CCC1.O=S(=O)([N-]S(=O)(=O)C(F)(F)F)C(F)(F)F,C1223_A0048,A132065,29,302.15,C13H21F6N3O4S2,13,21,3,4,2,0,6,0,0,0,0
COCCOCC[N+](C)(C)CCOCCOC.[Cl-],C2013_A0033,A132065,38,311.15,C12H28ClNO4,12,28,1,4,0,0,0,1,0,0,0
CC[N+](CCOCCOC)(CCOCCOC)CCOCCOC.[Br-],C2014_A0004,A132065,44,317.15,C17H38BrNO6,17,38,1,6,0,0,0,0,1,0,0
O=S(=O)([N-]S(=O)(=O)C(F)(F)F)C(F)(F)F.c1ccc([S+](c2ccccc2)c2ccccc2)cc1,C2010_A0048,A132065,92,365.15,C20H15F6NO4S3,20,15,1,4,3,0,6,0,0,0,0
O=S(=O)([N-]S(=O)(=O)C(F)(F)C(F)(F)F)C(F)(F)C(F)(F)F.c1ccc([S+](c2ccccc2)c2ccccc2)cc1,C2010_A0067,A132065,36,309.15,C22H15F10NO4S3,22,15,1,4,3,0,10,0,0,0,0
O=S(=O)([N-]S(=O)(=O)C(F)(F)F)C(F)(F)F.c1ccc(Oc2ccccc2[S+](c2ccccc2)c2ccccc2)cc1,C2011_A0048,A132065,63,336.15,C26H19F6NO5S3,26,19,1,5,3,0,6,0,0,0,0
O=S(=O)([N-]S(=O)(=O)C(F)(F)F)C(F)(F)F.O=S(=O)(c1ccccc1)c1ccccc1[S+](c1ccccc1)c1ccccc1,C2012_A0048,A132065,105,378.15,C26H19F6NO6S4,26,19,1,6,4,0,6,0,0,0,0
O=S(=O)([N-]S(=O)(=O)C(F)(F)C(F)(F)F)C(F)(F)C(F)(F)F.O=S(=O)(c1ccccc1)c1ccccc1[S+](c1ccccc1)c1ccccc1,C2012_A0067,A132065,132,405.15,C28H19F10NO6S4,28,19,1,6,4,0,10,0,0,0,0
CC[N+](CC)(CC)CC.Fc1c(F)c(F)c([B-](F)(F)F)c(F)c1F,C0687_A0328,A132065,55,328.15,C14H20BF8N,14,20,1,0,0,0,8,0,0,0,0
CC[n+]1ccn(C)c1.Fc1c(F)c(F)c([B-](F)(F)F)c(F)c1F,C0460_A0328,A132065,40,313.15,C12H11BF8N2,12,11,2,0,0,0,8,0,0,0,0
CCCC[n+]1ccn(C)c1.Fc1c(F)c(F)c([B-](F)(F)F)c(F)c1F,C0505_A0328,A132065,35,308.15,C14H15BF8N2,14,15,2,0,0,0,8,0,0,0,0
CCCCCCCC[n+]1ccn(C)c1.Fc1c(F)c(F)c([B-](F)(F)F)c(F)c1F,C0290_A0328,A132065,10,283.15,C18H23BF8N2,18,23,2,0,0,0,8,0,0,0,0
CCCC[n+]1ccn(C)c1C.Fc1c(F)c(F)c([B-](F)(F)F)c(F)c1F,C1098_A0328,A132065,35,308.15,C15H17BF8N2,15,17,2,0,0,0,8,0,0,0,0
CCCC[n+]1ccn(C)c1.COc1c(F)c(F)c([B-](F)(F)F)c(F)c1F,C0505_A0329,A132065,9,282.15,C15H18BF7N2O,15,18,2,1,0,0,7,0,0,0,0
CCCC[n+]1ccn(C)c1.CCCOc1c(F)c(F)c([B-](F)(F)F)c(F)c1F,C0505_A0330,A132065,-3,270.15,C17H22BF7N2O,17,22,2,1,0,0,7,0,0,0,0
CC(C)(C)Oc1c(F)c(F)c([B-](F)(F)F)c(F)c1F.CCCC[n+]1ccn(C)c1,C0505_A0331,A132065,33,306.15,C18H24BF7N2O,18,24,2,1,0,0,7,0,0,0,0
CCCC[n+]1ccn(C)c1.Fc1c(F)c([B-](F)(F)F)c(F)c(F)c1OCc1ccccc1,C0505_A0333,A132065,22,295.15,C21H22BF7N2O,21,22,2,1,0,0,7,0,0,0,0
CCCC[n+]1ccn(C)c1.Fc1c(F)c([B-](F)(F)F)c(F)c(F)c1Oc1ccccc1,C0505_A0334,A132065,78,351.15,C20H20BF7N2O,20,20,2,1,0,0,7,0,0,0,0
CC1(C)C2CCC1(C)C(Oc1c(F)c(F)c([B-](F)(F)F)c(F)c1F)C2.CCCC[n+]1ccn(C)c1,C0505_A0336,A132065,70,343.15,C24H32BF7N2O,24,32,2,1,0,0,7,0,0,0,0
C23=[NH+]CCCN2CCCCC3.CC1=CC(=O)[N-]S(=O)(=O)O1,C2018_A0049,A132065,101,374.15,C13H21N3O4S,13,21,3,4,1,0,0,0,0,0,0
CCN(CC)C(=O)[O-].CN(C)C(=[NH2+])N(C)C,C1490_A0338,A132065,64,337.15,C10H24N4O2,10,24,4,2,0,0,0,0,0,0,0
CC(C)N(C(=O)[O-])C(C)C.CN(C)C(=[NH2+])N(C)C,C1490_A0339,A132065,39,312.15,C12H28N4O2,12,28,4,2,0,0,0,0,0,0,0
CC1=CC(=O)[N-]S(=O)(=O)O1.CN(C)C(=[NH2+])N(C)C,C1490_A0049,A132065,72,345.15,C9H18N4O4S,9,18,4,4,1,0,0,0,0,0,0
CCCCN(C)C(=O)[O-].CN(C)C(=[NH2+])N(C)C,C1490_A0337,A132065,54,327.15,C11H26N4O2,11,26,4,2,0,0,0,0,0,0,0
CCCCCCCCCCCCCCCC[N+](C)(C)C.Cc1cc(Cl)ccc1OCC(=O)[O-],C2022_A0340,A132065,57,330.15,C28H50ClNO3,28,50,1,3,0,0,0,1,0,0,0
CCCCCCCCCCCCCCCC[N+](C)(C)C.O=C([O-])COc1ccc(Cl)cc1Cl,C2022_A0341,A132065,74,347.15,C27H47Cl2NO3,27,47,1,3,0,0,0,2,0,0,0
CCCCCCCCCCCCCCCC[N+](C)(C)C.COc1c(Cl)ccc(Cl)c1C(=O)[O-],C2022_A0342,A132065,101,374.15,C27H47Cl2NO3,27,47,1,3,0,0,0,2,0,0,0
CCCCCCCCCCCCCCCCCC[N+](C)(C)C.Cc1cc(Cl)ccc1OCC(=O)[O-],C2023_A0340,A132065,68,341.15,C30H54ClNO3,30,54,1,3,0,0,0,1,0,0,0
CCCCCCCCCCCCCCCCCC[N+](C)(C)C.O=C([O-])COc1ccc(Cl)cc1Cl,C2023_A0341,A132065,55,328.15,C29H51Cl2NO3,29,51,1,3,0,0,0,2,0,0,0
CCCCCCCCCCCCCCCCCC[N+](C)(C)C.COc1c(Cl)ccc(Cl)c1C(=O)[O-],C2023_A0342,A132065,76,349.15,C29H51Cl2NO3,29,51,1,3,0,0,0,2,0,0,0
CCCCCCCCCCCCCCCCCCCCCC[N+](C)(C)C.Cc1cc(Cl)ccc1OCC(=O)[O-],C2024_A0340,A132065,63,336.15,C34H62ClNO3,34,62,1,3,0,0,0,1,0,0,0
CCCCCCCCCCCCCCCCCCCCCC[N+](C)(C)C.O=C([O-])COc1ccc(Cl)cc1Cl,C2024_A0341,A132065,61,334.15,C33H59Cl2NO3,33,59,1,3,0,0,0,2,0,0,0
CCCCCCCCCCCCCCCCCCCCCC[N+](C)(C)C.COc1c(Cl)ccc(Cl)c1C(=O)[O-],C2024_A0342,A132065,72,345.15,C33H59Cl2NO3,33,59,1,3,0,0,0,2,0,0,0
C=Cn1cc[n+](CC)c1.O=S(=O)(F)[N-]S(=O)(=O)F,C0639_A0027,A132065,-23,250.15,C7H11F2N3O4S2,7,11,3,4,2,0,2,0,0,0,0
C=CCn1cc[n+](C)c1.O=S(=O)(F)[N-]S(=O)(=O)F,C0316_A0027,A132065,-3,270.15,C7H11F2N3O4S2,7,11,3,4,2,0,2,0,0,0,0
C=Cn1cc[n+](CC)c1.O=S(=O)([N-]S(=O)(=O)C(F)(F)F)C(F)(F)F,C0639_A0048,A132065,4,277.15,C9H11F6N3O4S2,9,11,3,4,2,0,6,0,0,0,0
NC(N)=[NH2+].O=S(=O)([O-])C(F)(F)C(F)(F)C(F)(F)C(F)(F)F,C2030_A0079,A132065,186,459.15,C5H6F9N3O3S,5,6,3,3,1,0,9,0,0,0,0
CCCCCCCCC[n+]1cccnc1.F[B-](F)(F)F,C2031_A0020,A132065,48,321.15,C13H23BF4N2,13,23,2,0,0,0,4,0,0,0,0
C[n+]1cccnc1.O=S(=O)([N-]S(=O)(=O)C(F)(F)F)C(F)(F)F,C2032_A0048,A132065,-58,215.15,C7H7F6N3O4S2,7,7,3,4,2,0,6,0,0,0,0
CC[n+]1cccnc1.O=S(=O)([N-]S(=O)(=O)C(F)(F)F)C(F)(F)F,C2033_A0048,A132065,47,320.15,C8H9F6N3O4S2,8,9,3,4,2,0,6,0,0,0,0
CCCCCCCCC[n+]1cccnc1.O=S(=O)([N-]S(=O)(=O)C(F)(F)F)C(F)(F)F,C2031_A0048,A132065,-52,221.15,C15H23F6N3O4S2,15,23,3,4,2,0,6,0,0,0,0
CCCC[P+](CCCC)(CCCC)CCCC.COc1cc(C=CC(=O)[O-])ccc1O,C1199_A0326,A132065,115,388.15,C26H45O4P,26,45,0,4,0,1,0,0,0,0,0
CCCC[N+](CCCC)(CCCC)CCCC.COc1cc(C=CC(=O)[O-])ccc1O,C0297_A0326,A132065,119,392.15,C26H45NO4,26,45,1,4,0,0,0,0,0,0,0
CCCC[P+](CCCC)(CCCC)CCCC.O=C([O-])C=Cc1ccc(O)cc1,C1199_A0344,A132065,145,418.15,C25H43O3P,25,43,0,3,0,1,0,0,0,0,0
CCCC[N+](CCCC)(CCCC)CCCC.O=C([O-])C=Cc1ccc(O)cc1,C0297_A0344,A132065,150,423.15,C25H43NO3,25,43,1,3,0,0,0,0,0,0,0
Br[Al-](Br)(Br)Br.CCC[N+](C)(C)CC,C0231_A0345,A132065,17,290.15,C7H18AlBr4N,7,18,1,0,0,0,0,0,4,0,0
Br[Al-](Br)(Br)Br.CCCC[N+](C)(C)CCC,C0156_A0345,A132065,65,338.15,C9H22AlBr4N,9,22,1,0,0,0,0,0,4,0,0
Br[Al-](Br)(Br)Br.CCCC[N+](C)(CC)CC,C0981_A0345,A132065,91,364.15,C9H22AlBr4N,9,22,1,0,0,0,0,0,4,0,0
Br[Al-](Br)(Br)Br.CCCCC[N+](CC)(CC)CC,C1488_A0345,A132065,47,320.15,C11H26AlBr4N,11,26,1,0,0,0,0,0,4,0,0
Br[Al-](Br)(Br)Br.CCCCC[P+](CC)(CC)CC,C0161_A0345,A132065,35,308.15,C11H26AlBr4P,11,26,0,0,0,1,0,0,4,0,0
CCCC[N+]1(C)CCCC1.O=S(=O)([N-]S(=O)(=O)C(F)(F)C(F)(F)F)C(F)(F)C(F)(F)F,C0315_A0067,A132065,9,282.15,C13H20F10N2O4S2,13,20,2,4,2,0,10,0,0,0,0
CCC[N+]1(C)CCCC1.O=S(=O)([N-]S(=O)(=O)C(F)(F)C(F)(F)F)C(F)(F)C(F)(F)F,C0152_A0067,A132065,6,279.15,C12H18F10N2O4S2,12,18,2,4,2,0,10,0,0,0,0
C[N+]1(C)CCCC1.O=S(=O)([N-]S(=O)(=O)C(F)(F)C(F)(F)F)C(F)(F)C(F)(F)F,C0411_A0067,A132065,133,406.15,C10H14F10N2O4S2,10,14,2,4,2,0,10,0,0,0,0
CCCCCCCCCCCCCC[P+](CCCCCC)(CCCCCC)CCCCCC.O=S(=O)([N-]S(=O)(=O)C(F)(F)F)C(F)(F)F,C1119_A0048,A132065,33,306.15,C34H68F6NO4PS2,34,68,1,4,2,1,6,0,0,0,0
CCCC[n+]1ccccc1C.F[B-](F)(F)F,C1288_A0020,A132065,28,301.15,C10H16BF4N,10,16,1,0,0,0,4,0,0,0,0
CCCCCCCCOS(=O)(=O)[O-].CC[n+]1ccn(C)c1,C0460_A0114,A132065,10,283.15,C14H28N2O4S,14,28,2,4,1,0,0,0,0,0,0
CCCC[n+]1cccc(C)c1.O=S(=O)([O-])C(F)(F)F,C1289_A0084,A132065,30,303.15,C11H16F3NO3S,11,16,1,3,1,0,3,0,0,0,0
CC[n+]1cccc(C)c1.O=S(=O)([N-]S(=O)(=O)C(F)(F)F)C(F)(F)F,C1187_A0048,A132065,-1,272.15,C10H12F6N2O4S2,10,12,2,4,2,0,6,0,0,0,0
O=[N+]([O-])[O-].c1ccc2c(c1)CCC[NH2+]2,C2097_A0090,A132065,123,396.15,C9H12N2O3,9,12,2,3,0,0,0,0,0,0,0
CCCCCCC[N+](CCCCCC)(CCCCCC)CCCCCCC.[I-],C2038_A0069,A132065,100,373.15,C26H56IN,26,56,1,0,0,0,0,0,0,1,0
CCCCCC[N+](CCCCCC)(CCCCCC)CCCCCC.[O-][Cl+3]([O-])([O-])[O-],C0234_A0051,A132065,110,383.15,C24H52ClNO4,24,52,1,4,0,0,0,1,0,0,0
CCCCCCC[N+](CCCCCCC)(CCCCCCC)CCCCCCC.[I-],C0565_A0069,A132065,123,396.15,C28H60IN,28,60,1,0,0,0,0,0,0,1,0
CCCCC[N+](CCCCC)(CCCCC)CCCCC.N#C[S-],C0832_A0015,A132065,50,323.15,C21H44N2S,21,44,2,0,1,0,0,0,0,0,0
CCCCCCC[N+](CCCCCC)(CCCCCC)CCCCCC.O=[N+]([O-])[O-],C2039_A0090,A132065,72,345.15,C25H54N2O3,25,54,2,3,0,0,0,0,0,0,0
CCCC[N+](CCCC)(CCCC)CCCC.[Br-],C0297_A0004,A132065,122,395.15,C16H36BrN,16,36,1,0,0,0,0,0,1,0,0
CCCC[N+](CCCC)(CCCC)CCCC.O=[N+]([O-])[O-],C0297_A0090,A132065,119,392.15,C16H36N2O3,16,36,2,3,0,0,0,0,0,0,0
CCCCC[N+](CCCCC)(CCCCC)CCCCC.[Br-],C0832_A0004,A132065,103,376.15,C20H44BrN,20,44,1,0,0,0,0,0,1,0,0
CCCC[N+](CCCC)(CCCC)CCCC.[Cl-],C0297_A0033,A132065,41,314.15,C16H36ClN,16,36,1,0,0,0,0,1,0,0,0
CCCCCC[N+](CCCCCC)(CCCCCC)CCCCCC.F[B-](F)(F)F,C0234_A0020,A132065,94,367.15,C24H52BF4N,24,52,1,0,0,0,4,0,0,0,0
CCCCCC[N+](CCCCCC)(CCCCCC)CCCCCC.O=[N+]([O-])[O-],C0234_A0090,A132065,72,345.15,C24H52N2O3,24,52,2,3,0,0,0,0,0,0,0
CCCCCCC[N+](CCCCCC)(CCCCCC)CCCCCCC.[O-][Cl+3]([O-])([O-])[O-],C2038_A0051,A132065,105,378.15,C26H56ClNO4,26,56,1,4,0,0,0,1,0,0,0
CCCCCCC[N+](CCCCCCC)(CCCCCCC)CCCCCCC.[O-][Cl+3]([O-])([O-])[O-],C0565_A0051,A132065,126,399.15,C28H60ClNO4,28,60,1,4,0,0,0,1,0,0,0
CCCCCC[N+](CCCCCC)(CCCCCC)CCCCCC.[Br-],C0234_A0004,A132065,104,377.15,C24H52BrN,24,52,1,0,0,0,0,0,1,0,0
CCCCCCC[N+](CCCCCC)(CCCCCC)CCCCCC.[I-],C2039_A0069,A132065,98,371.15,C25H54IN,25,54,1,0,0,0,0,0,0,1,0
CCCCCCC[N+](CCCCCC)(CCCCCC)CCCCCC.[Br-],C2039_A0004,A132065,108,381.15,C25H54BrN,25,54,1,0,0,0,0,0,1,0,0
CCCCCCC[N+](CCCCCCC)(CCCCCCC)CCCCCCC.[Br-],C0565_A0004,A132065,96,369.15,C28H60BrN,28,60,1,0,0,0,0,0,1,0,0
CCCC[N+](CCC(C)C)(CCC(C)C)CCC(C)C.[Br-],C2040_A0004,A132065,122,395.15,C19H42BrN,19,42,1,0,0,0,0,0,1,0,0
CCCCC[N+](CCCCC)(CCCCC)CCCCC.O=[N+]([O-])[O-],C0832_A0090,A132065,114,387.15,C20H44N2O3,20,44,2,3,0,0,0,0,0,0,0
CCCCCCC[N+](CCCCCC)(CCCCCC)CCCCCC.[O-][Cl+3]([O-])([O-])[O-],C2039_A0051,A132065,103,376.15,C25H54ClNO4,25,54,1,4,0,0,0,1,0,0,0
C[NH+](C)C.O=S(=O)([N-]S(=O)(=O)C(F)(F)F)C(F)(F)F,C2041_A0048,A132065,84,357.15,C5H10F6N2O4S2,5,10,2,4,2,0,6,0,0,0,0
CCC[N+](C)(C)CCO.[Br-],C1550_A0004,A132065,99,372.15,C7H18BrNO,7,18,1,1,0,0,0,0,1,0,0
CCCC[N+](C)(C)CCO.[Br-],C1560_A0004,A132065,86,359.15,C8H20BrNO,8,20,1,1,0,0,0,0,1,0,0
CCCCCC[N+](C)(C)CCO.[Br-],C1537_A0004,A132065,82,355.15,C10H24BrNO,10,24,1,1,0,0,0,0,1,0,0
CCCC[P+](CCCC)(CCCC)CCCC.CS(=O)(=O)[O-],C1199_A0054,A132065,62,335.15,C17H39O3PS,17,39,0,3,1,1,0,0,0,0,0
CCCCCC[n+]1cccc(C)c1.Cc1ccc(S(=O)(=O)[O-])cc1,C1309_A0030,A132065,56,329.15,C19H27NO3S,19,27,1,3,1,0,0,0,0,0,0
CCOS(=O)(=O)[O-].CC[n+]1ccn(C)c1,C0460_A0083,A132065,-37,236.15,C8H16N2O4S,8,16,2,4,1,0,0,0,0,0,0
CC[n+]1ccn(C)c1.F[P-](F)(F)(F)(F)F,C0460_A0011,A132065,60,333.15,C6H11F6N2P,6,11,2,0,0,1,6,0,0,0,0
CC[n+]1ccn(C)c1.Cc1ccc(S(=O)(=O)[O-])cc1,C0460_A0030,A132065,50,323.15,C13H18N2O3S,13,18,2,3,1,0,0,0,0,0,0
CCCCCCCC[n+]1ccn(C)c1.[Cl-],C0290_A0033,A132065,12,285.15,C12H23ClN2,12,23,2,0,0,0,0,1,0,0,0
CCCCCCCCCC(=O)OCC[N+](C)(C)COCCCCC.O=C([O-])C(F)(F)F,C1683_A0064,A132065,7,280.15,C22H42F3NO5,22,42,1,5,0,0,3,0,0,0,0
CCCCCCCCCCCOC[N+](C)(C)CCO.N#C[N-]C#N,C2043_A0056,A132065,10,283.15,C18H36N4O2,18,36,4,2,0,0,0,0,0,0,0
CCCCCCCCCC[N+](C)(C)CCCCCCCCCC.O=[N+]([O-])[O-],C0514_A0090,A132065,32,305.15,C22H48N2O3,22,48,2,3,0,0,0,0,0,0,0
CCn1cc[n+](CC)c1.O=S(=O)([N-]S(=O)(=O)C(F)(F)F)C(F)(F)F,C0064_A0048,A132065,-11,262.15,C9H13F6N3O4S2,9,13,3,4,2,0,6,0,0,0,0
CCCC[n+]1ccc(C)cc1.Cc1ccc(S(=O)(=O)[O-])cc1,C0845_A0030,A132065,52,325.15,C17H23NO3S,17,23,1,3,1,0,0,0,0,0,0
CCCC[n+]1ccc(C)cc1.O=S(=O)([N-]S(=O)(=O)C(F)(F)F)C(F)(F)F,C0845_A0048,A132065,18,291.15,C12H16F6N2O4S2,12,16,2,4,2,0,6,0,0,0,0
Cc1cc(C)[nH+]c(C)c1.Cc1ccc(S(=O)(=O)[O-])cc1,C2044_A0030,A132065,131,404.15,C15H19NO3S,15,19,1,3,1,0,0,0,0,0,0
CCCC[n+]1cccc(C)c1.Cc1ccc(S(=O)(=O)[O-])cc1,C1289_A0030,A132065,51,324.15,C17H23NO3S,17,23,1,3,1,0,0,0,0,0,0
Cc1cc[n+](C)cc1.Cc1ccc(S(=O)(=O)[O-])cc1,C0067_A0030,A132065,152,425.15,C14H17NO3S,14,17,1,3,1,0,0,0,0,0,0
CCCCCC[n+]1cccc2ccccc21.O=S(=O)([N-]S(=O)(=O)C(F)(F)F)C(F)(F)F,C1604_A0048,A132065,44,317.15,C17H20F6N2O4S2,17,20,2,4,2,0,6,0,0,0,0
CC[N+]1(C)CCCCC1.O=S(=O)([N-]S(=O)(=O)C(F)(F)F)C(F)(F)F,C0871_A0048,A132065,85,358.15,C10H18F6N2O4S2,10,18,2,4,2,0,6,0,0,0,0
CCCC[N+]1(C)CCCCC1.N#C[S-],C0137_A0015,A132065,31,304.15,C11H22N2S,11,22,2,0,1,0,0,0,0,0,0
CCCCCC[n+]1cccc(C)c1.O=S(=O)([O-])C(F)(F)F,C1309_A0084,A132065,65,338.15,C13H20F3NO3S,13,20,1,3,1,0,3,0,0,0,0
CCCC[N+]1(C)CCCC1.N#C[S-],C0315_A0015,A132065,22,295.15,C10H20N2S,10,20,2,0,1,0,0,0,0,0,0
Nc1[nH]nn[n+]1N.[O-][Cl+3]([O-])([O-])[O-],C2045_A0051,A132065,128,401.15,CH5ClN6O4,1,5,6,4,0,0,0,1,0,0,0
C[NH+]1C=CN(CCCc2ccccc2)C1.F[P-](F)(F)(F)(F)F,C2046_A0011,A132065,52,325.15,C13H19F6N2P,13,19,2,0,0,1,6,0,0,0,0
C[NH+]1C=CN(CCc2ccccc2)C1.O=S(=O)([N-]S(=O)(=O)C(F)(F)F)C(F)(F)F,C2047_A0048,A132065,37,310.15,C14H17F6N3O4S2,14,17,3,4,2,0,6,0,0,0,0
C[NH+]1C=CN(CCCc2ccccc2)C1.O=S(=O)([N-]S(=O)(=O)C(F)(F)F)C(F)(F)F,C2046_A0048,A132065,48,321.15,C15H19F6N3O4S2,15,19,3,4,2,0,6,0,0,0,0
C[NH+]1C=CN(CCc2ccccc2)C1.F[P-](F)(F)(F)(F)F,C2047_A0011,A132065,103,376.15,C12H17F6N2P,12,17,2,0,0,1,6,0,0,0,0
CCCC[n+]1ccn(C)c1.COS(=O)(=O)[O-],C0505_A0044,A132065,-4,269.15,C9H18N2O4S,9,18,2,4,1,0,0,0,0,0,0
Cn1nn[n+](N)c1N.O=[N+]([O-])[O-],C0961_A0090,A132065,121,394.15,C2H7N7O3,2,7,7,3,0,0,0,0,0,0,0
CCCC[N+]1(C)CCCC1.FC(F)(F)C(F)(F)[P-](F)(F)(F)(C(F)(F)C(F)(F)F)C(F)(F)C(F)(F)F,C0315_A0071,A132065,4,277.15,C15H20F18NP,15,20,1,0,0,1,18,0,0,0,0
CCn1cc[n+](C)c1C.O=S(=O)([N-]S(=O)(=O)C(F)(F)F)C(F)(F)F,C0162_A0048,A132065,25,298.15,C9H13F6N3O4S2,9,13,3,4,2,0,6,0,0,0,0
CN(C)C(=[NH2+])N(C)C.O=C([O-])C(F)(F)F,C1490_A0064,A132065,42,315.15,C7H14F3N3O2,7,14,3,2,0,0,3,0,0,0,0
CN(C)C(=[NH2+])N(C)C.O=S(=O)([O-])C(F)(F)F,C1490_A0084,A132065,41,314.15,C6H14F3N3O3S,6,14,3,3,1,0,3,0,0,0,0
CC(O)C(=O)[O-].CN(C)C(=[NH2+])N(C)C,C1490_A0121,A132065,-50,223.15,C8H19N3O3,8,19,3,3,0,0,0,0,0,0,0
CC(C)C(N)C(=O)[O-].CCCC[P+](CCCC)(CCCC)CCCC,C1199_A0260,A132065,26,299.15,C21H46NO2P,21,46,1,2,0,1,0,0,0,0,0