IL_SMILES,NAME,ARTICLEID,IL-Tm (deg-C),IL-Tm (K),MolecularFormula,C,H,N,O,S,P,F,Cl,Br,I,Si
CCCN(CCC)c1c(N(C)C)[c+]1N(C)C.O=S(=O)([N-]S(=O)(=O)C(F)(F)F)C(F)(F)F,,A138128,52.2,325.35,C15H26F6N4O4S2,15,26,4,4,2,0,6,0,0,0,0
CCCN(CCC)c1c(N(CCC)CCC)[c+]1N(CCC)CCC.O=S(=O)([N-]S(=O)(=O)C(F)(F)F)C(F)(F)F,,A138128,34.2,307.35,C23H42F6N4O4S2,23,42,4,4,2,0,6,0,0,0,0
CCCCN(C)c1c(N(C)C)[c+]1N(C)C.O=S(=O)([N-]S(=O)(=O)C(F)(F)F)C(F)(F)F,,A138128,6.2,279.35,C14H24F6N4O4S2,14,24,4,4,2,0,6,0,0,0,0
CCCCN(CCCC)c1c(N(CC)CC)[c+]1N(CC)CC.O=S(=O)([N-]S(=O)(=O)C(F)(F)F)C(F)(F)F,,A138128,-3.8,269.35,C21H38F6N4O4S2,21,38,4,4,2,0,6,0,0,0,0
CCCCN(CCCC)c1c(N(CCCC)CCCC)[c+]1N(CCCC)CCCC.O=S(=O)([N-]S(=O)(=O)C(F)(F)F)C(F)(F)F,,A138128,7.2,280.35,C29H54F6N4O4S2,29,54,4,4,2,0,6,0,0,0,0
CCCCCN(CCCCC)c1c(N(CCCCC)CCCCC)[c+]1N(CCCCC)CCCCC.O=S(=O)([N-]S(=O)(=O)C(F)(F)F)C(F)(F)F,,A138128,4.2,277.35,C35H66F6N4O4S2,35,66,4,4,2,0,6,0,0,0,0
CCCCCCN(C)c1c(N(C)C)[c+]1N(C)C.O=S(=O)([N-]S(=O)(=O)C(F)(F)F)C(F)(F)F,,A138128,-13.8,259.35,C16H28F6N4O4S2,16,28,4,4,2,0,6,0,0,0,0
CCCCCCN(CCCCCC)c1c(N(C)C)[c+]1N(C)C.O=S(=O)([N-]S(=O)(=O)C(F)(F)F)C(F)(F)F,,A138128,21.2,294.35,C21H38F6N4O4S2,21,38,4,4,2,0,6,0,0,0,0
CCCCCCN(CCCCCC)c1c(N(CCCCCC)CCCCCC)[c+]1N(CCCCCC)CCCCCC.O=S(=O)([N-]S(=O)(=O)C(F)(F)F)C(F)(F)F,,A138128,3.2,276.35,C41H78F6N4O4S2,41,78,4,4,2,0,6,0,0,0,0
CCCCCCCCCCN(CCCCCCCCCC)c1c(N(CCCCCCCCCC)CCCCCCCCCC)[c+]1N(CCCCCCCCCC)CCCCCCCCCC.O=S(=O)([N-]S(=O)(=O)C(F)(F)F)C(F)(F)F,,A138128,8.2,281.35,C65H126F6N4O4S2,65,126,4,4,2,0,6,0,0,0,0
Cn1cc[n+](C)c1.O=S(=O)([N-]S(=O)(=O)C(F)(F)C(F)(F)F)C(F)(F)C(F)(F)F,,A138128,15.2,288.35,C9H9F10N3O4S2,9,9,3,4,2,0,10,0,0,0,0
CCCCn1cc[n+](C)c1.O=S(=O)([N-]S(=O)(=O)C(F)(F)C(F)(F)F)C(F)(F)C(F)(F)F,,A138128,7.2,280.35,C12H15F10N3O4S2,12,15,3,4,2,0,10,0,0,0,0
CCCCCCCCCCn1cc[n+](C)c1.O=S(=O)([N-]S(=O)(=O)C(F)(F)C(F)(F)F)C(F)(F)C(F)(F)F,,A138128,12.7,285.85,C18H27F10N3O4S2,18,27,3,4,2,0,10,0,0,0,0
CCCCCCCCCCCCCCCCCCn1cc[n+](C)c1.O=S(=O)([N-]S(=O)(=O)C(F)(F)C(F)(F)F)C(F)(F)C(F)(F)F,,A138128,15.45,288.6,C26H43F10N3O4S2,26,43,3,4,2,0,10,0,0,0,0
CCCC[n+]1ccccc1.O=S(=O)([N-]S(=O)(=O)C(F)(F)C(F)(F)F)C(F)(F)C(F)(F)F,,A138128,49.2,322.35,C13H14F10N2O4S2,13,14,2,4,2,0,10,0,0,0,0
CCCC[n+]1cc(C)cc(C)c1.O=S(=O)([N-]S(=O)(=O)C(F)(F)C(F)(F)F)C(F)(F)C(F)(F)F,,A138128,18.7,291.85,C15H18F10N2O4S2,15,18,2,4,2,0,10,0,0,0,0
CCCCCCCC[n+]1ccc(C)cc1.O=S(=O)([N-]S(=O)(=O)C(F)(F)C(F)(F)F)C(F)(F)C(F)(F)F,,A138128,2.2,275.35,C18H24F10N2O4S2,18,24,2,4,2,0,10,0,0,0,0
CCCC[N+](CCCC)(CCCC)CCCC.O=S(=O)([N-]S(=O)(=O)C(F)(F)C(F)(F)F)C(F)(F)C(F)(F)F,,A138128,150.2,423.35,C20H36F10N2O4S2,20,36,2,4,2,0,10,0,0,0,0
COCC[N+]1(C)CCCC1.O=S(=O)([N-]S(=O)(=O)C(F)(F)C(F)(F)F)C(F)(F)C(F)(F)F,,A138128,8,281.15,C12H18F10N2O5S2,12,18,2,5,2,0,10,0,0,0,0
CCCC[P+](CCCC)(CCCC)CCCC.O=S(=O)([N-]S(=O)(=O)C(F)(F)C(F)(F)F)C(F)(F)C(F)(F)F,,A138128,145.2,418.35,C20H36F10NO4PS2,20,36,1,4,2,1,10,0,0,0,0
CCCCCCCCCCCCCC[P+](CCCCCC)(CCCCCC)CCCCCC.O=S(=O)([N-]S(=O)(=O)C(F)(F)C(F)(F)F)C(F)(F)C(F)(F)F,,A138128,-1.8,271.35,C36H68F10NO4PS2,36,68,1,4,2,1,10,0,0,0,0
Cn1cc[n+](C)c1.O=[N+]([O-])[O-],,A138128,77.7,350.85,C5H9N3O3,5,9,3,3,0,0,0,0,0,0,0
CCCCn1cc[n+](C)c1.O=[N+]([O-])[O-],,A138128,2.3,275.45,C8H15N3O3,8,15,3,3,0,0,0,0,0,0,0
O=[N+]([O-])[O-].OCC[NH2+]CCO,,A138128,72.2,345.35,C4H12N2O5,4,12,2,5,0,0,0,0,0,0,0
O=[N+]([O-])[O-].OCC[NH+](CCO)CCO,,A138128,80.2,353.35,C6H16N2O6,6,16,2,6,0,0,0,0,0,0,0
COCC[NH3+].O=[N+]([O-])[O-],,A138128,37.2,310.35,C3H10N2O4,3,10,2,4,0,0,0,0,0,0,0
CCOC(=O)C(C)[NH3+].O=[N+]([O-])[O-],,A138128,-16.8,256.35,C5H12N2O5,5,12,2,5,0,0,0,0,0,0,0
COC(=O)C([NH3+])CC(C)C.O=[N+]([O-])[O-],,A138128,75.2,348.35,C7H16N2O5,7,16,2,5,0,0,0,0,0,0,0
COC(=O)C([NH3+])C(C)O.O=[N+]([O-])[O-],,A138128,-11.8,261.35,C5H12N2O6,5,12,2,6,0,0,0,0,0,0,0
C1CC[NH2+]C1.O=[N+]([O-])[O-],,A138128,-14.8,258.35,C4H10N2O3,4,10,2,3,0,0,0,0,0,0,0
C=CC[N+]1(C)CCCC1.O=[N+]([O-])[O-],,A138128,10.2,283.35,C8H16N2O3,8,16,2,3,0,0,0,0,0,0,0
CCCN(C)C(N(C)C)=[N+](C)C.O=[N+]([O-])[O-],,A138128,209.2,482.35,C9H22N4O3,9,22,4,3,0,0,0,0,0,0,0
C[S+]1CCCC1.O=[N+]([O-])[O-],,A138128,116.2,389.35,C5H11NO3S,5,11,1,3,1,0,0,0,0,0,0
CC[S+]1CCCC1.O=[N+]([O-])[O-],,A138128,18.2,291.35,C6H13NO3S,6,13,1,3,1,0,0,0,0,0,0
CCCC[S+]1CCCC1.O=[N+]([O-])[O-],,A138128,54.2,327.35,C8H17NO3S,8,17,1,3,1,0,0,0,0,0,0
CC[N+](C)(C)N.N#C[N-][N+](=O)[O-],,A138128,25.6,298.75,C5H13N5O2,5,13,5,2,0,0,0,0,0,0,0
CCCC[N+](C)(C)N.N#C[N-][N+](=O)[O-],,A138128,9.2,282.35,C7H17N5O2,7,17,5,2,0,0,0,0,0,0,0
CC(O)C(=O)[O-].[NH3+]CCO,,A138128,-58.4,214.75,C5H13NO4,5,13,1,4,0,0,0,0,0,0,0
CC(O)C(=O)[O-].OCC[NH+](CCO)CCO,,A138128,-54.7,218.45,C9H21NO6,9,21,1,6,0,0,0,0,0,0,0
CC(O)C(=O)[O-].[NH3+]CCOCCO,,A138128,-55.4,217.75,C7H17NO5,7,17,1,5,0,0,0,0,0,0,0
CC(O)C(=O)[O-].CCCCCCCCCCCCOC(=O)C[N+](C)(C)C,,A138128,39.2,312.35,C20H41NO5,20,41,1,5,0,0,0,0,0,0,0
CC(O)C(=O)[O-].CCCCCCCCCCCCCCOC(=O)C[N+](C)(C)C,,A138128,48.2,321.35,C22H45NO5,22,45,1,5,0,0,0,0,0,0,0
CC(O)C(=O)[O-].CCCCCCCCCCCCCCCCOC(=O)C[N+](C)(C)C,,A138128,58.2,331.35,C24H49NO5,24,49,1,5,0,0,0,0,0,0,0
CC(O)C(=O)[O-].CCOC(=O)C(C)[NH3+],,A138128,75.2,348.35,C8H17NO5,8,17,1,5,0,0,0,0,0,0,0
Cn1c[n+](CCC(F)(F)F)cn1.[I-],,A138128,98.2,371.35,C6H9F3IN3,6,9,3,0,0,0,3,0,0,1,0
CCCCn1c[n+](CCC(F)(F)F)cn1.[I-],,A138128,123.2,396.35,C9H15F3IN3,9,15,3,0,0,0,3,0,0,1,0
CCCCCCCn1c[n+](CCC(F)(F)F)cn1.[I-],,A138128,174.2,447.35,C12H21F3IN3,12,21,3,0,0,0,3,0,0,1,0
CCCCCCCCCCn1c[n+](CCC(F)(F)F)cn1.[I-],,A138128,192.2,465.35,C15H27F3IN3,15,27,3,0,0,0,3,0,0,1,0
C=CC[N+]1(C)CCCC1.[I-],,A138128,57.7,330.85,C8H16IN,8,16,1,0,0,0,0,0,0,1,0
CCCC[N+]1(C)CCCCCC1.[I-],,A138128,87.2,360.35,C11H24IN,11,24,1,0,0,0,0,0,0,1,0
CCCCCC[N+]1(C)CCCCCC1.[I-],,A138128,140.2,413.35,C13H28IN,13,28,1,0,0,0,0,0,0,1,0
COCC[N+]1(C)CCCCCC1.[I-],,A138128,83.2,356.35,C10H22INO,10,22,1,1,0,0,0,0,0,1,0
COCCOCC[N+]1(C)CCCCCC1.[I-],,A138128,71.2,344.35,C12H26INO2,12,26,1,2,0,0,0,0,0,1,0
Cc1cc[nH+]cc1.O=S(=O)([O-])O,,A138128,-18.7,254.45,C6H9NO4S,6,9,1,4,1,0,0,0,0,0,0
CC[NH+](C)C.O=S(=O)([O-])O,,A138128,3.5,276.65,C4H13NO4S,4,13,1,4,1,0,0,0,0,0,0
CCCC[NH+](CCCC)CCCC.O=S(=O)([O-])O,,A138128,86.8,359.95,C12H29NO4S,12,29,1,4,1,0,0,0,0,0,0
CC(C)(C)[NH3+].O=S(=O)([O-])O,,A138128,130.8,403.95,C4H13NO4S,4,13,1,4,1,0,0,0,0,0,0
C1CC[NH2+]C1.O=S(=O)([O-])O,,A138128,-29.8,243.35,C4H11NO4S,4,11,1,4,1,0,0,0,0,0,0
C[NH+]1CCCC1.O=S(=O)([O-])O,,A138128,34.2,307.35,C5H13NO4S,5,13,1,4,1,0,0,0,0,0,0
CC(Oc1ccc(Cl)cc1Cl)C(=O)[O-].CCCCCCCCCC[N+](C)(C)CCCCCCCCCC,,A138128,0.6,273.75,C31H55Cl2NO3,31,55,1,3,0,0,0,2,0,0,0
CC(Oc1ccc(Cl)cc1Cl)C(=O)[O-].CCCCCCCCCCCCCCCCCC[N+](C)(C)C,,A138128,-12,261.15,C30H53Cl2NO3,30,53,1,3,0,0,0,2,0,0,0
CC(Oc1ccc(Cl)cc1Cl)C(=O)[O-].C[N+](C)(C)CCO,,A138128,119.5,392.65,C14H21Cl2NO4,14,21,1,4,0,0,0,2,0,0,0
COCC[NH3+].O=P([O-])(O)O,,A138128,90.7,363.85,C3H12NO5P,3,12,1,5,0,1,0,0,0,0,0
CCCC[N+](CCCC)(CCCC)CCCC.NCC(=O)[O-],,A138128,16.2,289.35,C18H40N2O2,18,40,2,2,0,0,0,0,0,0,0
CCCC[N+]1(CC)CCCC1.O=S(=O)(F)[N-]S(=O)(=O)F,,A138128,-35.8,237.35,C10H22F2N2O4S2,10,22,2,4,2,0,2,0,0,0,0
COCC[N+]1(C)CCCC1.O=S(=O)(F)[N-]S(=O)(=O)F,,A138128,4,277.15,C8H18F2N2O5S2,8,18,2,5,2,0,2,0,0,0,0
CCCCCC[N+]1(C)CCOCC1.O=S(=O)(F)[N-]S(=O)(=O)F,,A138128,34,307.15,C11H24F2N2O5S2,11,24,2,5,2,0,2,0,0,0,0
CC(C)C[P+](C)(C)C.O=S(=O)(F)[N-]S(=O)(=O)F,,A138128,12.5,285.65,C7H18F2NO4PS2,7,18,1,4,2,1,2,0,0,0,0
O=C[O-].[NH3+]CCOCCO,,A138128,-74.7,198.45,C5H13NO4,5,13,1,4,0,0,0,0,0,0,0
COCC[NH3+].O=C[O-],,A138128,-22.2,250.95,C4H11NO3,4,11,1,3,0,0,0,0,0,0,0
COCC[NH2+]CCOC.O=C[O-],,A138128,4.8,277.95,C7H17NO4,7,17,1,4,0,0,0,0,0,0,0
C1COCC[NH2+]1.O=C[O-],,A138128,6,279.15,C5H11NO3,5,11,1,3,0,0,0,0,0,0,0
CC[NH+]1CCOCC1.O=C[O-],,A138128,-22,251.15,C7H15NO3,7,15,1,3,0,0,0,0,0,0,0
Cn1cc[n+](C)c1.N#C[N-]C#N,,A138128,34.2,307.35,C7H9N5,7,9,5,0,0,0,0,0,0,0,0
CCCCn1cc[n+](C)c1C.N#C[N-]C#N,,A138128,26.2,299.35,C11H17N5,11,17,5,0,0,0,0,0,0,0,0
C[n+]1ccn(CCO)c1.N#C[N-]C#N,,A138128,-49.8,223.35,C8H11N5O,8,11,5,1,0,0,0,0,0,0,0
C[n+]1ccn(CCO[N+](=O)[O-])c1.N#C[N-]C#N,,A138128,-50,223.15,C8H10N6O3,8,10,6,3,0,0,0,0,0,0,0
CC[n+]1cccn1C.N#C[N-]C#N,,A138128,13.2,286.35,C8H11N5,8,11,5,0,0,0,0,0,0,0,0
COCC[n+]1cccn1C.N#C[N-]C#N,,A138128,-7.8,265.35,C9H13N5O,9,13,5,1,0,0,0,0,0,0,0
CC[n+]1ccsc1.N#C[N-]C#N,,A138128,57.2,330.35,C7H8N4S,7,8,4,0,1,0,0,0,0,0,0
N#C[N-]C#N.O=[N+]([O-])OCC[n+]1ccccc1,,A138128,60.2,333.35,C9H9N5O3,9,9,5,3,0,0,0,0,0,0,0
CCCC[n+]1cccc(C)c1.N#C[N-]C#N,,A138128,5,278.15,C12H16N4,12,16,4,0,0,0,0,0,0,0,0
CCCC[n+]1ccc(C)cc1.N#C[N-]C#N,,A138128,27.3,300.45,C12H16N4,12,16,4,0,0,0,0,0,0,0,0
N#C[N-]C#N.OCC[n+]1ccccc1,,A138128,-48.7,224.45,C9H10N4O,9,10,4,1,0,0,0,0,0,0,0
CC[N+](C)(C)C.N#C[N-]C#N,,A138128,96.5,369.65,C7H14N4,7,14,4,0,0,0,0,0,0,0,0
CCCC[N+](C)(CCCC)CCCC.N#C[N-]C#N,,A138128,12.2,285.35,C15H30N4,15,30,4,0,0,0,0,0,0,0,0
CCCCC[N+](CC)(CC)CC.N#C[N-]C#N,,A138128,-6.8,266.35,C13H26N4,13,26,4,0,0,0,0,0,0,0,0
CCCCCC[N+](CC)(CC)CC.N#C[N-]C#N,,A138128,-42.8,230.35,C14H28N4,14,28,4,0,0,0,0,0,0,0,0
C[N+](C)(C)CCO.N#C[N-]C#N,,A138128,-49.7,223.45,C7H14N4O,7,14,4,1,0,0,0,0,0,0,0
CCCCCCCCCCCCOC(=O)C[N+](C)(C)C.N#C[N-]C#N,,A138128,58.2,331.35,C19H36N4O2,19,36,4,2,0,0,0,0,0,0,0
C[N+](C)(C)CCCC#N.N#C[N-]C#N,,A138128,43.4,316.55,C9H15N5,9,15,5,0,0,0,0,0,0,0,0
CC[N+](C)(C)N.N#C[N-]C#N,,A138128,31.1,304.25,C6H13N5,6,13,5,0,0,0,0,0,0,0,0
CCCC[N+](C)(C)N.N#C[N-]C#N,,A138128,20.6,293.75,C8H17N5,8,17,5,0,0,0,0,0,0,0,0
C[N+](C)(C)CCO[N+](=O)[O-].N#C[N-]C#N,,A138128,-49.9,223.25,C7H13N5O3,7,13,5,3,0,0,0,0,0,0,0
C[N+]1(CCO)CCCC1.N#C[N-]C#N,,A138128,-49.6,223.55,C9H16N4O,9,16,4,1,0,0,0,0,0,0,0
C[N+]1(CCO[N+](=O)[O-])CCCC1.N#C[N-]C#N,,A138128,-49.7,223.45,C9H15N5O3,9,15,5,3,0,0,0,0,0,0,0
CCCCN(C)C(N(C)C)=[N+](C)C.N#C[N-]C#N,,A138128,75.2,348.35,C12H24N6,12,24,6,0,0,0,0,0,0,0,0
CCCC[P+](CC)(CC)CC.N#C[N-]C#N,,A138128,5.2,278.35,C12H24N3P,12,24,3,0,0,1,0,0,0,0,0
CCCC[P+](C)(CCCC)CCCC.N#C[N-]C#N,,A138128,6.1,279.25,C15H30N3P,15,30,3,0,0,1,0,0,0,0,0
CCCCC[P+](CC)(CC)CC.N#C[N-]C#N,,A138128,-11.8,261.35,C13H26N3P,13,26,3,0,0,1,0,0,0,0,0
C[S+]1CCCC1.N#C[N-]C#N,,A138128,13.2,286.35,C7H11N3S,7,11,3,0,1,0,0,0,0,0,0
Cn1cc[n+](C)c1.[O-][Cl+3]([O-])([O-])[O-],,A138128,64.2,337.35,C5H9ClN2O4,5,9,2,4,0,0,0,1,0,0,0
CCn1cc[n+](C)c1.[O-][Cl+3]([O-])([O-])[O-],,A138128,7.2,280.35,C6H11ClN2O4,6,11,2,4,0,0,0,1,0,0,0
CCCCn1cc[n+](C)c1.[O-][Cl+3]([O-])([O-])[O-],,A138128,65.2,338.35,C8H15ClN2O4,8,15,2,4,0,0,0,1,0,0,0
CC[NH3+].[O-][Cl+3]([O-])([O-])[O-],,A138128,152.1,425.25,C2H8ClNO4,2,8,1,4,0,0,0,1,0,0,0
CCCCCCCCCCCCOC(=O)C[N+](C)(C)C.[O-][Cl+3]([O-])([O-])[O-],,A138128,84.2,357.35,C17H36ClNO6,17,36,1,6,0,0,0,1,0,0,0
CCCCCCCCCCCCCCOC(=O)C[N+](C)(C)C.[O-][Cl+3]([O-])([O-])[O-],,A138128,94.2,367.35,C19H40ClNO6,19,40,1,6,0,0,0,1,0,0,0
CCCCCCCCCCCCCCCCOC(=O)C[N+](C)(C)C.[O-][Cl+3]([O-])([O-])[O-],,A138128,99.2,372.35,C21H44ClNO6,21,44,1,6,0,0,0,1,0,0,0
CCCN(C)C(N(C)C)=[N+](C)C.[O-][Cl+3]([O-])([O-])[O-],,A138128,268.2,541.35,C9H22ClN3O4,9,22,3,4,0,0,0,1,0,0,0
CCCCN(C)C(N(C)C)=[N+](C)C.[O-][Cl+3]([O-])([O-])[O-],,A138128,135.2,408.35,C10H24ClN3O4,10,24,3,4,0,0,0,1,0,0,0
CCCCSc1[nH+]ccn1C.[Cl-],,A138128,92.2,365.35,C8H15ClN2S,8,15,2,0,1,0,0,1,0,0,0
C=CCn1cc[n+](CC=C)c1.[Cl-],,A138128,21.7,294.85,C9H13ClN2,9,13,2,0,0,0,0,1,0,0,0
C[N+](C)(C)CCCC#N.[Cl-],,A138128,79,352.15,C7H15ClN2,7,15,2,0,0,0,0,1,0,0,0
CCCCCCCn1c[n+](CCF)cn1.[Br-],,A138128,125.2,398.35,C11H21BrFN3,11,21,3,0,0,0,1,0,1,0,0
CCCCCCCCCCn1c[n+](CCF)cn1.[Br-],,A138128,129.2,402.35,C14H27BrFN3,14,27,3,0,0,0,1,0,1,0,0
CCCC[n+]1ccc(C)cc1.[Br-],,A138128,78.2,351.35,C10H16BrN,10,16,1,0,0,0,0,0,1,0,0
CCCC[n+]1ccc(C#N)cc1.[Br-],,A138128,212.2,485.35,C10H13BrN2,10,13,2,0,0,0,0,0,1,0,0
CCCC[n+]1cccc(C#N)c1.[Br-],,A138128,156.2,429.35,C10H13BrN2,10,13,2,0,0,0,0,0,1,0,0
CCCCCC[n+]1ccc(C#N)cc1.[Br-],,A138128,196.2,469.35,C12H17BrN2,12,17,2,0,0,0,0,0,1,0,0
CCCCCCCC[n+]1ccc(C#N)cc1.[Br-],,A138128,162.2,435.35,C14H21BrN2,14,21,2,0,0,0,0,0,1,0,0
CCC[N+]1(C)CCCC1.[Br-],,A138128,107.2,380.35,C8H18BrN,8,18,1,0,0,0,0,0,1,0,0
C=CC[N+]1(C)CCCC1.[Br-],,A138128,18.2,291.35,C8H16BrN,8,16,1,0,0,0,0,0,1,0,0
CCCCC[N+]1(C)CCCCC1.[Br-],,A138128,173.8,446.95,C11H24BrN,11,24,1,0,0,0,0,0,1,0,0
C=CC[N+]1(C)CCCCC1.[Br-],,A138128,61.2,334.35,C9H18BrN,9,18,1,0,0,0,0,0,1,0,0
CCC[N+]1(C)CCOCC1.[Br-],,A138128,180.9,454.05,C8H18BrNO,8,18,1,1,0,0,0,0,1,0,0
CCCC[N+]1(C)CCOCC1.[Br-],,A138128,211.5,484.65,C9H20BrNO,9,20,1,1,0,0,0,0,1,0,0
CCCCC[N+]1(C)CCOCC1.[Br-],,A138128,194,467.15,C10H22BrNO,10,22,1,1,0,0,0,0,1,0,0
C=CC[N+]1(C)CCOCC1.[Br-],,A138128,80.2,353.35,C8H16BrNO,8,16,1,1,0,0,0,0,1,0,0
C=CC[N+]1(CC)CCOCC1.[Br-],,A138128,75.2,348.35,C9H18BrNO,9,18,1,1,0,0,0,0,1,0,0
CC[N+](C)(C)COC.O=C1O[B-]2(OC1=O)OC(=O)C(=O)O2,,A138128,51,324.15,C10H16BNO9,10,16,1,9,0,0,0,0,0,0,0
CCOC[N+](C)(C)CC.O=C1O[B-]2(OC1=O)OC(=O)C(=O)O2,,A138128,46.9,320.05,C11H18BNO9,11,18,1,9,0,0,0,0,0,0,0
CCn1cc[n+](C)c1.N#C[B-](F)(C#N)C#N,,A138128,-7.6,265.55,C9H11BFN5,9,11,5,0,0,0,1,0,0,0,0
CCn1cc[n+](C)c1.N#C[B-](F)(C#N)C(F)(F)C(F)(F)F,,A138128,-20.8,252.35,C10H11BF6N4,10,11,4,0,0,0,6,0,0,0,0
CCn1cc[n+](C)c1.N#C[B-](F)(C#N)C(F)(F)F,,A138128,-29.8,243.35,C9H11BF4N4,9,11,4,0,0,0,4,0,0,0,0
CCC[n+]1ccn(C)c1C.F[B-](F)(F)F,,A138128,-16.8,256.35,C8H15BF4N2,8,15,2,0,0,0,4,0,0,0,0
CC=CC[n+]1ccn(C)c1C.F[B-](F)(F)F,,A138128,-55.8,217.35,C9H15BF4N2,9,15,2,0,0,0,4,0,0,0,0
F[B-](F)(F)F.[NH3+]CCO,,A138128,0.7,273.85,C2H8BF4NO,2,8,1,1,0,0,4,0,0,0,0
CCCCCCOC(=O)C[N+](C)(C)C.F[B-](F)(F)F,,A138128,58.2,331.35,C11H24BF4NO2,11,24,1,2,0,0,4,0,0,0,0
CCCCCCCCCCCCOC(=O)C[N+](C)(C)C.F[B-](F)(F)F,,A138128,89.2,362.35,C17H36BF4NO2,17,36,1,2,0,0,4,0,0,0,0
CCCCCCCCCCCCCCCCOC(=O)C[N+](C)(C)C.F[B-](F)(F)F,,A138128,104.2,377.35,C21H44BF4NO2,21,44,1,2,0,0,4,0,0,0,0
C[N+](C)(C)CCCC#N.F[B-](F)(F)F,,A138128,61.1,334.25,C7H15BF4N2,7,15,2,0,0,0,4,0,0,0,0
CC(C)(C)[NH3+].F[B-](F)(F)F,,A138128,118.5,391.65,C4H12BF4N,4,12,1,0,0,0,4,0,0,0,0
C[NH+]1CCCC1.F[B-](F)(F)F,,A138128,-32.8,240.35,C5H12BF4N,5,12,1,0,0,0,4,0,0,0,0
C[NH+]1CCCCC1.F[B-](F)(F)F,,A138128,25.2,298.35,C6H14BF4N,6,14,1,0,0,0,4,0,0,0,0
C[NH+]1CCOCC1.F[B-](F)(F)F,,A138128,29.2,302.35,C5H12BF4NO,5,12,1,1,0,0,4,0,0,0,0
CC[NH+]1CCOCC1.F[B-](F)(F)F,,A138128,21.2,294.35,C6H14BF4NO,6,14,1,1,0,0,4,0,0,0,0
CCCCCCCCCCCC[P+](CCCC)(CCCC)CCCC.F[B-](F)(F)F,,A138128,22.6,295.75,C24H52BF4P,24,52,0,0,0,1,4,0,0,0,0
CCC[N+]1(C)CCCC1.F[B-](F)(F)C(F)(F)C(F)(F)C(F)(F)C(F)(F)F,,A138128,77.2,350.35,C12H18BF12N,12,18,1,0,0,0,12,0,0,0,0
COCC[N+]1(C)CCCC1.F[B-](F)(F)C(F)(F)C(F)(F)C(F)(F)C(F)(F)F,,A138128,-12.8,260.35,C12H18BF12NO,12,18,1,1,0,0,12,0,0,0,0
CCC[N+]1(C)CCCC1.F[B-](F)(F)C(F)(F)C(F)(F)C(F)(F)F,,A138128,79.2,352.35,C11H18BF10N,11,18,1,0,0,0,10,0,0,0,0
COCC[N+]1(C)CCCC1.F[B-](F)(F)C(F)(F)C(F)(F)C(F)(F)F,,A138128,6.2,279.35,C11H18BF10NO,11,18,1,1,0,0,10,0,0,0,0
CCn1cc[n+](C)c1.F[B-](F)(F)C(F)(F)C(F)(F)OC(F)(F)F,,A138128,-29.8,243.35,C9H11BF10N2O,9,11,2,1,0,0,10,0,0,0,0
CCCC[N+](C)(CC)CC.F[B-](F)(F)C(F)(F)C(F)(F)OC(F)(F)F,,A138128,16.2,289.35,C12H22BF10NO,12,22,1,1,0,0,10,0,0,0,0
CCC[N+]1(C)CCCC1.F[B-](F)(F)C(F)(F)C(F)(F)OC(F)(F)F,,A138128,25.2,298.35,C11H18BF10NO,11,18,1,1,0,0,10,0,0,0,0
CCn1cc[n+](C)c1.O=C1O[B-](F)(F)OC1=O,,A138128,18.2,291.35,C8H11BF2N2O4,8,11,2,4,0,0,2,0,0,0,0
CC[N+](CC)(CC)CC.O=C1O[B-](F)(F)OC1=O,,A138128,33.2,306.35,C10H20BF2NO4,10,20,1,4,0,0,2,0,0,0,0
CCn1cc[n+](C)c1.N#C[B-](F)(F)C#N,,A138128,-27.4,245.75,C8H11BF2N4,8,11,4,0,0,0,2,0,0,0,0
CCn1cc[n+](C)c1.N#C[B-](F)(F)C(F)(F)C(F)(F)C(F)(F)C(F)(F)F,,A138128,-35.8,237.35,C11H11BF11N3,11,11,3,0,0,0,11,0,0,0,0
CCn1cc[n+](C)c1.N#C[B-](F)(F)C(F)(F)C(F)(F)C(F)(F)F,,A138128,-52.8,220.35,C10H11BF9N3,10,11,3,0,0,0,9,0,0,0,0
CCn1cc[n+](C)c1.N#C[B-](F)(F)C(F)(F)C(F)(F)F,,A138128,-56.8,216.35,C9H11BF7N3,9,11,3,0,0,0,7,0,0,0,0
CCn1cc[n+](C)c1.N#C[B-](F)(F)C(F)(F)F,,A138128,-33.8,239.35,C8H11BF5N3,8,11,3,0,0,0,5,0,0,0,0
CCCCC(CC)COC(=O)CC(C(=O)OCC(CC)CCCC)S(=O)(=O)[O-].CCCCn1cc[n+](C)c1,,A138128,-18.8,254.35,C28H52N2O7S,28,52,2,7,1,0,0,0,0,0,0
CCn1cc[n+](C)c1.N#C[B-](C#N)(C#N)C(F)(F)F,,A138128,-6.8,266.35,C10H11BF3N5,10,11,5,0,0,0,3,0,0,0,0
CCCCCCCC[n+]1ccc(C)cc1.F[As-](F)(F)(F)(F)F,,A138128,8.2,281.35,C14H24AsF6N,14,24,1,0,0,0,6,0,0,0,0
CC(N)C(=O)[O-].C[N+](C)(C)C,,A138128,42.2,315.35,C7H18N2O2,7,18,2,2,0,0,0,0,0,0,0
CCn1cc[n+](C)c1.FC(F)(F)C(O[Al-](OC(C(F)(F)F)C(F)(F)F)(OC(C(F)(F)F)C(F)(F)F)OC(C(F)(F)F)C(F)(F)F)C(F)(F)F,,A138128,31.2,304.35,C18H15AlF24N2O4,18,15,2,4,0,0,24,0,0,0,0
CCn1cc[n+](C)c1C.FC(F)(F)C(O[Al-](OC(C(F)(F)F)C(F)(F)F)(OC(C(F)(F)F)C(F)(F)F)OC(C(F)(F)F)C(F)(F)F)C(F)(F)F,,A138128,39.2,312.35,C19H17AlF24N2O4,19,17,2,4,0,0,24,0,0,0,0
CCCCn1cc[n+](C)c1.FC(F)(F)C(O[Al-](OC(C(F)(F)F)C(F)(F)F)(OC(C(F)(F)F)C(F)(F)F)OC(C(F)(F)F)C(F)(F)F)C(F)(F)F,,A138128,40.2,313.35,C20H19AlF24N2O4,20,19,2,4,0,0,24,0,0,0,0
CCCCn1cc[n+](C)c1C.FC(F)(F)C(O[Al-](OC(C(F)(F)F)C(F)(F)F)(OC(C(F)(F)F)C(F)(F)F)OC(C(F)(F)F)C(F)(F)F)C(F)(F)F,,A138128,0.2,273.35,C21H21AlF24N2O4,21,21,2,4,0,0,24,0,0,0,0
CCCCCC[n+]1ccn(C)c1.FC(F)(F)C(O[Al-](OC(C(F)(F)F)C(F)(F)F)(OC(C(F)(F)F)C(F)(F)F)OC(C(F)(F)F)C(F)(F)F)C(F)(F)F,,A138128,5.2,278.35,C22H23AlF24N2O4,22,23,2,4,0,0,24,0,0,0,0
C=CCn1cc[n+](C)c1.FC(F)(F)C(O[Al-](OC(C(F)(F)F)C(F)(F)F)(OC(C(F)(F)F)C(F)(F)F)OC(C(F)(F)F)C(F)(F)F)C(F)(F)F,,A138128,12.2,285.35,C19H15AlF24N2O4,19,15,2,4,0,0,24,0,0,0,0
CCCC[n+]1ccccc1.FC(F)(F)C(O[Al-](OC(C(F)(F)F)C(F)(F)F)(OC(C(F)(F)F)C(F)(F)F)OC(C(F)(F)F)C(F)(F)F)C(F)(F)F,,A138128,36.2,309.35,C21H18AlF24NO4,21,18,1,4,0,0,24,0,0,0,0
CCCC[N+]1(C)CCCC1.FC(F)(F)C(O[Al-](OC(C(F)(F)F)C(F)(F)F)(OC(C(F)(F)F)C(F)(F)F)OC(C(F)(F)F)C(F)(F)F)C(F)(F)F,,A138128,50.2,323.35,C21H24AlF24NO4,21,24,1,4,0,0,24,0,0,0,0
CCC[N+]1(C)CCCCC1.FC(F)(F)C(O[Al-](OC(C(F)(F)F)C(F)(F)F)(OC(C(F)(F)F)C(F)(F)F)OC(C(F)(F)F)C(F)(F)F)C(F)(F)F,,A138128,69.2,342.35,C21H24AlF24NO4,21,24,1,4,0,0,24,0,0,0,0
CCCC[N+]1(C)CCOCC1.FC(F)(F)C(O[Al-](OC(C(F)(F)F)C(F)(F)F)(OC(C(F)(F)F)C(F)(F)F)OC(C(F)(F)F)C(F)(F)F)C(F)(F)F,,A138128,31.2,304.35,C21H24AlF24NO5,21,24,1,5,0,0,24,0,0,0,0
CC1=CC(=O)[N-]S(=O)(=O)O1.CCCCCCCCCC(=O)OCC[N+](C)(C)COC1CCCCCCCCCCC1,,A138128,87.7,360.85,C31H58N2O7S,31,58,2,7,1,0,0,0,0,0,0
CC1=CC(=O)[N-]S(=O)(=O)O1.CCCCCCCCCCCOC[N+](C)(C)CCO,,A138128,34.4,307.55,C20H40N2O6S,20,40,2,6,1,0,0,0,0,0,0
CC(=O)[O-].CC(C)Cn1cc[n+](CC(C)C)c1,,A138128,60.2,333.35,C13H24N2O2,13,24,2,2,0,0,0,0,0,0,0
CC(=O)[O-].CCCC[N+](CC)(CC)CC,,A138128,27.9,301.05,C12H27NO2,12,27,1,2,0,0,0,0,0,0,0
CC(=O)[O-].[NH3+]CCO,,A138128,-70.8,202.35,C4H11NO3,4,11,1,3,0,0,0,0,0,0,0
CC(=O)[O-].[NH3+]CCOCCO,,A138128,-60.6,212.55,C6H15NO4,6,15,1,4,0,0,0,0,0,0,0
CC(=O)[O-].C[N+](C)(C)CCO,,A138128,72.2,345.35,C7H17NO3,7,17,1,3,0,0,0,0,0,0,0
CC(=O)[O-].CC[N+](C)(C)CCOC,,A138128,36.3,309.45,C9H21NO3,9,21,1,3,0,0,0,0,0,0,0
CC(=O)[O-].COCC[NH2+]CCOC,,A138128,6.1,279.25,C8H19NO4,8,19,1,4,0,0,0,0,0,0,0
CCCCCCCC(=O)[O-].CC[NH3+],,A138128,-3.8,269.35,C10H23NO2,10,23,1,2,0,0,0,0,0,0,0
CCCCCCCC(=O)[O-].CCCC[NH3+],,A138128,-14.8,258.35,C12H27NO2,12,27,1,2,0,0,0,0,0,0,0
CCCCCCCC(=O)[O-].[NH3+]CCO,,A138128,33.2,306.35,C10H23NO3,10,23,1,3,0,0,0,0,0,0,0
C1CC[NH2+]C1.CCCCCCCC(=O)[O-],,A138128,-39.8,233.35,C12H25NO2,12,25,1,2,0,0,0,0,0,0,0
CCCCCCCCCCCCCCCCCC(=O)[O-].[NH3+]CCO,,A138128,75.7,348.85,C20H43NO3,20,43,1,3,0,0,0,0,0,0,0
CCCCCCCCCCCCCCCCCC(=O)[O-].OCC[NH2+]CCO,,A138128,58.7,331.85,C22H47NO4,22,47,1,4,0,0,0,0,0,0,0