IL_SMILES,NAME,ARTICLEID,IL-Tm (deg-C),IL-Tm (K),MolecularFormula,C,H,N,O,S,P,F,Cl,Br,I,Si
C[N+]1(C)CCCC1.O=S(=O)([N-]S(=O)(=O)C(F)(F)F)C(F)(F)F,C0411_A0048,A132065,105,378.15,C8H14F6N2O4S2,8,14,2,4,2,0,6,0,0,0,0
C[N+]1(C)CCCC1.N#C[N-]C#N,C0411_A0056,A132065,115,388.15,C8H14N4,8,14,4,0,0,0,0,0,0,0,0
C[N+]1(C)CCCC1.O=C([N-]S(=O)(=O)C(F)(F)F)C(F)(F)F,C0411_A0034,A132065,14,287.15,C9H14F6N2O3S,9,14,2,3,1,0,6,0,0,0,0
CS(=O)(=O)[N-]S(C)(=O)=O.C[N+]1(C)CCCC1,C0411_A0032,A132065,48,321.15,C8H20N2O4S2,8,20,2,4,2,0,0,0,0,0,0
CS(=O)(=O)[O-].C[N+]1(C)CCCC1,C0411_A0054,A132065,200,473.15,C7H17NO3S,7,17,1,3,1,0,0,0,0,0,0
C[N+]1(C)CCCC1.O=S(=O)([O-])C(F)(F)C(F)(F)C(F)(F)C(F)(F)F,C0411_A0079,A132065,198,471.15,C10H14F9NO3S,10,14,1,3,1,0,9,0,0,0,0
C[N+]1(C)CCCC1.Cc1ccc(S(=O)(=O)[O-])cc1,C0411_A0030,A132065,167,440.15,C13H21NO3S,13,21,1,3,1,0,0,0,0,0,0
C[N+]1(C)CCCC1.O=C([O-])C=CC(=O)O,C0411_A0039,A132065,74,347.15,C10H17NO4,10,17,1,4,0,0,0,0,0,0,0
C[N+]1(C)CCCC1.O=C([O-])c1ccccc1C(=O)O,C0411_A0088,A132065,88,361.15,C14H19NO4,14,19,1,4,0,0,0,0,0,0,0
CC[N+]1(C)CCCC1.N#C[N-]C#N,C0876_A0056,A132065,-10,263.15,C9H16N4,9,16,4,0,0,0,0,0,0,0,0
CC[N+]1(C)CCCC1.CS(=O)(=O)[O-],C0876_A0054,A132065,40,313.15,C8H19NO3S,8,19,1,3,1,0,0,0,0,0,0
CC[N+]1(C)CCCC1.O=S(=O)([O-])C(F)(F)C(F)(F)C(F)(F)C(F)(F)F,C0876_A0079,A132065,176,449.15,C11H16F9NO3S,11,16,1,3,1,0,9,0,0,0,0
CC[N+]1(C)CCCC1.Cc1ccc(S(=O)(=O)[O-])cc1,C0876_A0030,A132065,120,393.15,C14H23NO3S,14,23,1,3,1,0,0,0,0,0,0
CCC[N+]1(C)CCCC1.N#C[N-]C#N,C0152_A0056,A132065,-35,238.15,C10H18N4,10,18,4,0,0,0,0,0,0,0,0
CCC[N+]1(C)CCCC1.O=S(=O)(F)[N-]S(=O)(=O)F,C0152_A0027,A132065,-18,255.15,C8H18F2N2O4S2,8,18,2,4,2,0,2,0,0,0,0
CCC[N+]1(C)CCCC1.CS(=O)(=O)[O-],C0152_A0054,A132065,80,353.15,C9H21NO3S,9,21,1,3,1,0,0,0,0,0,0
CCC[N+]1(C)CCCC1.Cc1ccc(S(=O)(=O)[O-])cc1,C0152_A0030,A132065,80,353.15,C15H25NO3S,15,25,1,3,1,0,0,0,0,0,0
CCCC[N+]1(C)CCCC1.F[B-](F)(F)F,C0315_A0020,A132065,78,351.15,C9H20BF4N,9,20,1,0,0,0,4,0,0,0,0
CCCC[N+]1(C)CCCC1.F[B-](F)(F)C(F)(F)F,C0315_A0008,A132065,-18,255.15,C10H20BF6N,10,20,1,0,0,0,6,0,0,0,0
CCCC[N+]1(C)CCCC1.F[B-](F)(F)C(F)(F)C(F)(F)F,C0315_A0043,A132065,22,295.15,C11H20BF8N,11,20,1,0,0,0,8,0,0,0,0
CCCC[N+]1(C)CCCC1.F[B-](F)(F)C(F)(F)C(F)(F)C(F)(F)F,C0315_A0009,A132065,53,326.15,C12H20BF10N,12,20,1,0,0,0,10,0,0,0,0
CCCC[N+]1(C)CCCC1.F[B-](F)(F)C(F)(F)C(F)(F)C(F)(F)C(F)(F)F,C0315_A0021,A132065,61,334.15,C13H20BF12N,13,20,1,0,0,0,12,0,0,0,0
CCCC[N+]1(C)CCCC1.N#C[N-]C#N,C0315_A0056,A132065,-55,218.15,C11H20N4,11,20,4,0,0,0,0,0,0,0,0
CCCC[N+]1(C)CCCC1.CS(=O)(=O)[N-]S(C)(=O)=O,C0315_A0032,A132065,-58,215.15,C11H26N2O4S2,11,26,2,4,2,0,0,0,0,0,0
CCCC[N+]1(C)CCCC1.CS(=O)(=O)[O-],C0315_A0054,A132065,63,336.15,C10H23NO3S,10,23,1,3,1,0,0,0,0,0,0
CCCC[N+]1(C)CCCC1.O=S(=O)([O-])C(F)(F)C(F)(F)C(F)(F)C(F)(F)F,C0315_A0079,A132065,94,367.15,C13H20F9NO3S,13,20,1,3,1,0,9,0,0,0,0
CCCC[N+]1(C)CCCC1.Cc1ccc(S(=O)(=O)[O-])cc1,C0315_A0030,A132065,115,388.15,C16H27NO3S,16,27,1,3,1,0,0,0,0,0,0
CCCC[N+]1(C)CCCC1.O=P([O-])(O)O,C0315_A0012,A132065,112,385.15,C9H22NO4P,9,22,1,4,0,1,0,0,0,0,0
CC(=O)[O-].CCCC[N+]1(C)CCCC1,C0315_A0087,A132065,81,354.15,C11H23NO2,11,23,1,2,0,0,0,0,0,0,0
CCCCCC[N+]1(C)CCCC1.N#C[N-]C#N,C0821_A0056,A132065,-55,218.15,C13H24N4,13,24,4,0,0,0,0,0,0,0,0
CCCCCC[N+]1(C)CCCC1.CS(=O)(=O)[N-]S(C)(=O)=O,C0821_A0032,A132065,-55,218.15,C13H30N2O4S2,13,30,2,4,2,0,0,0,0,0,0
CCCCCC[N+]1(C)CCCC1.CS(=O)(=O)[O-],C0821_A0054,A132065,86,359.15,C12H27NO3S,12,27,1,3,1,0,0,0,0,0,0
CCCCCC[N+]1(C)CCCC1.O=S(=O)([O-])C(F)(F)C(F)(F)C(F)(F)C(F)(F)F,C0821_A0079,A132065,120,393.15,C15H24F9NO3S,15,24,1,3,1,0,9,0,0,0,0
CCCCCC[N+]1(C)CCCC1.Cc1ccc(S(=O)(=O)[O-])cc1,C0821_A0030,A132065,137,410.15,C18H31NO3S,18,31,1,3,1,0,0,0,0,0,0
COC(=O)C[N+]1(C)CCCC1.O=S(=O)([N-]S(=O)(=O)C(F)(F)F)C(F)(F)F,C1153_A0048,A132065,-42,231.15,C10H16F6N2O6S2,10,16,2,6,2,0,6,0,0,0,0
CCCCC[N+]1(C)CCCC1.O=S(=O)([O-])C(F)(F)C(F)(F)C(F)(F)C(F)(F)F,C0397_A0079,A132065,117,390.15,C14H22F9NO3S,14,22,1,3,1,0,9,0,0,0,0
C[NH+]1CCCC1.O=C([O-])C(F)(F)F,C1075_A0064,A132065,38,311.15,C7H12F3NO2,7,12,1,2,0,0,3,0,0,0,0
C[NH+]1CCCC1.O=C[O-],C1075_A0024,A132065,-32,241.15,C6H13NO2,6,13,1,2,0,0,0,0,0,0,0
COC[N+]1(C)CCCC1.F[B-](F)(F)F,C1091_A0020,A132065,-18,255.15,C7H16BF4NO,7,16,1,1,0,0,4,0,0,0,0
COC[N+]1(C)CCCC1.O=S(=O)([N-]S(=O)(=O)C(F)(F)F)C(F)(F)F,C1091_A0048,A132065,-21,252.15,C9H16F6N2O5S2,9,16,2,5,2,0,6,0,0,0,0
COC[N+]1(C)CCCC1.F[B-](F)(F)C(F)(F)F,C1091_A0008,A132065,-4,269.15,C8H16BF6NO,8,16,1,1,0,0,6,0,0,0,0
COC[N+]1(C)CCCC1.F[B-](F)(F)C(F)(F)C(F)(F)F,C1091_A0043,A132065,26,299.15,C9H16BF8NO,9,16,1,1,0,0,8,0,0,0,0
COCC[N+]1(C)CCCC1.F[B-](F)(F)F,C0141_A0020,A132065,12,285.15,C8H18BF4NO,8,18,1,1,0,0,4,0,0,0,0
COCC[N+]1(C)CCCC1.F[B-](F)(F)C(F)(F)F,C0141_A0008,A132065,-16,257.15,C9H18BF6NO,9,18,1,1,0,0,6,0,0,0,0
COCC[N+]1(C)CCCC1.F[B-](F)(F)C(F)(F)C(F)(F)F,C0141_A0043,A132065,-3,270.15,C10H18BF8NO,10,18,1,1,0,0,8,0,0,0,0
CCC[N+]1(C)CCCCC1.O=S(=O)([N-]S(=O)(=O)C(F)(F)C(F)(F)F)C(F)(F)F,C0155_A0074,A132065,-4,269.15,C12H20F8N2O4S2,12,20,2,4,2,0,8,0,0,0,0
CC[N+]1(CC(=O)OC)CCCCC1.O=S(=O)([N-]S(=O)(=O)C(F)(F)F)C(F)(F)F,C0044_A0048,A132065,-42,231.15,C12H20F6N2O6S2,12,20,2,6,2,0,6,0,0,0,0
CC1(C)CC(N)CC(C)(C)[NH2+]1.O=C([CH-]C(=O)C(F)(F)F)C(F)(F)F,C0867_A0010,A132065,88,361.15,C14H22F6N2O2,14,22,2,2,0,0,6,0,0,0,0
CC1(C)CC(N)CC(C)(C)[NH2+]1.O=C([CH-]C(=O)C(F)(F)F)c1ccco1,C0867_A0036,A132065,152,425.15,C17H25F3N2O3,17,25,2,3,0,0,3,0,0,0,0
COCC[N+]1(C)CCCCC1.F[B-](F)(F)C(F)(F)F,C0728_A0008,A132065,-16,257.15,C10H20BF6NO,10,20,1,1,0,0,6,0,0,0,0
COCC[N+]1(C)CCCCC1.F[B-](F)(F)C(F)(F)C(F)(F)F,C0728_A0043,A132065,-15,258.15,C11H20BF8NO,11,20,1,1,0,0,8,0,0,0,0
COCC[N+]1(C)CCCCC1.F[B-](F)(F)C(F)(F)C(F)(F)C(F)(F)F,C0728_A0009,A132065,-9,264.15,C12H20BF10NO,12,20,1,1,0,0,10,0,0,0,0
COCC[N+]1(C)CCCCC1.F[B-](F)(F)C(F)(F)C(F)(F)C(F)(F)C(F)(F)F,C0728_A0021,A132065,20,293.15,C13H20BF12NO,13,20,1,1,0,0,12,0,0,0,0
CCCC[N+]1(C)CCCCC1.F[B-](F)(F)F,C0137_A0020,A132065,146,419.15,C10H22BF4N,10,22,1,0,0,0,4,0,0,0,0
CCCC[N+]1(C)CCCCC1.F[B-](F)(F)C(F)(F)F,C0137_A0008,A132065,12,285.15,C11H22BF6N,11,22,1,0,0,0,6,0,0,0,0
CCCC[N+]1(C)CCCCC1.F[B-](F)(F)C(F)(F)C(F)(F)F,C0137_A0043,A132065,41,314.15,C12H22BF8N,12,22,1,0,0,0,8,0,0,0,0
CCCC[N+]1(C)CCCCC1.F[B-](F)(F)C(F)(F)C(F)(F)C(F)(F)F,C0137_A0009,A132065,81,354.15,C13H22BF10N,13,22,1,0,0,0,10,0,0,0,0
CCCC[N+]1(C)CCCCC1.F[B-](F)(F)C(F)(F)C(F)(F)C(F)(F)C(F)(F)F,C0137_A0021,A132065,92,365.15,C14H22BF12N,14,22,1,0,0,0,12,0,0,0,0
CCCCCCCC[N+]1(C)CCCCC1.F[B-](F)(F)F,C0168_A0020,A132065,92,365.15,C14H30BF4N,14,30,1,0,0,0,4,0,0,0,0
CCCCCCCC[N+]1(C)CCCCC1.O=S(=O)([O-])C(F)(F)F,C0168_A0084,A132065,47,320.15,C15H30F3NO3S,15,30,1,3,1,0,3,0,0,0,0
CC[NH+]1CCC=C1C.O=S(=O)([N-]S(=O)(=O)C(F)(F)F)C(F)(F)F,C0645_A0048,A132065,45,318.15,C9H14F6N2O4S2,9,14,2,4,2,0,6,0,0,0,0
CCC[NH+]1CCC=C1C.[I-],C1100_A0069,A132065,85,358.15,C8H16IN,8,16,1,0,0,0,0,0,0,1,0
CCC[NH+]1CCC=C1C.O=S(=O)([N-]S(=O)(=O)C(F)(F)F)C(F)(F)F,C1100_A0048,A132065,19,292.15,C10H16F6N2O4S2,10,16,2,4,2,0,6,0,0,0,0
CCCC[NH+]1CCC=C1C.[I-],C0502_A0069,A132065,111,384.15,C9H18IN,9,18,1,0,0,0,0,0,0,1,0
CCCC[NH+]1CCC=C1C.O=S(=O)([N-]S(=O)(=O)C(F)(F)F)C(F)(F)F,C0502_A0048,A132065,36,309.15,C11H18F6N2O4S2,11,18,2,4,2,0,6,0,0,0,0
CCCC[n+]1ccccc1.F[B-](F)(F)F,C0734_A0020,A132065,15,288.15,C9H14BF4N,9,14,1,0,0,0,4,0,0,0,0
CCCC[n+]1ccccc1.O=S(=O)([N-]S(=O)(=O)C(F)(F)F)C(F)(F)F,C0734_A0048,A132065,26,299.15,C11H14F6N2O4S2,11,14,2,4,2,0,6,0,0,0,0
CCCC[n+]1ccccc1.O=S(=O)([O-])OCC(F)(F)C(F)(F)C(F)(F)C(F)F,C0734_A0078,A132065,3,276.15,C14H17F8NO4S,14,17,1,4,1,0,8,0,0,0,0
CCCC[n+]1ccccc1.O=C([O-])c1ccccc1,C0734_A0031,A132065,11,284.15,C16H19NO2,16,19,1,2,0,0,0,0,0,0,0
CCCCCCCCCCCC[n+]1ccccc1.F[P-](F)(F)(F)(F)F,C0527_A0011,A132065,106,379.15,C17H30F6NP,17,30,1,0,0,1,6,0,0,0,0
CCCCCCCCCCCC[n+]1ccccc1.FC(F)(F)c1cc([B-](c2cc(C(F)(F)F)cc(C(F)(F)F)c2)(c2cc(C(F)(F)F)cc(C(F)(F)F)c2)c2cc(C(F)(F)F)cc(C(F)(F)F)c2)cc(C(F)(F)F)c1,C0527_A0006,A132065,64,337.15,C49H42BF24N,49,42,1,0,0,0,24,0,0,0,0
CCCCCCCCCCCCCC[n+]1ccccc1.F[P-](F)(F)(F)(F)F,C0209_A0011,A132065,124,397.15,C19H34F6NP,19,34,1,0,0,1,6,0,0,0,0
CCCCCCCCCCCCCCCC[n+]1ccccc1.F[P-](F)(F)(F)(F)F,C0428_A0011,A132065,126,399.15,C21H38F6NP,21,38,1,0,0,1,6,0,0,0,0
CCCCCCCCCCCCCCCCCC[n+]1ccccc1.F[P-](F)(F)(F)(F)F,C0279_A0011,A132065,126,399.15,C23H42F6NP,23,42,1,0,0,1,6,0,0,0,0
CCCC[n+]1ccc(C)cc1.O=C([O-])c1ccccc1,C0845_A0031,A132065,10,283.15,C17H21NO2,17,21,1,2,0,0,0,0,0,0,0
CCCCCCCCCCCC[n+]1cccc(C)c1.F[P-](F)(F)(F)(F)F,C1109_A0011,A132065,55,328.15,C18H32F6NP,18,32,1,0,0,1,6,0,0,0,0
CCCCCCCCCCCC[n+]1ccc(C)cc1.F[P-](F)(F)(F)(F)F,C0853_A0011,A132065,56,329.15,C18H32F6NP,18,32,1,0,0,1,6,0,0,0,0
CCCCCCCCCCCCCC[n+]1cccc(C)c1.F[P-](F)(F)(F)(F)F,C0721_A0011,A132065,68,341.15,C20H36F6NP,20,36,1,0,0,1,6,0,0,0,0
CCCCCCCCCCCCCC[n+]1ccc(C)cc1.F[P-](F)(F)(F)(F)F,C0676_A0011,A132065,71,344.15,C20H36F6NP,20,36,1,0,0,1,6,0,0,0,0
CCCCCCCCCCCCCCCC[n+]1cccc(C)c1.F[P-](F)(F)(F)(F)F,C0701_A0011,A132065,74,347.15,C22H40F6NP,22,40,1,0,0,1,6,0,0,0,0
CCCCCCCCCCCCCCCC[n+]1ccc(C)cc1.F[P-](F)(F)(F)(F)F,C0620_A0011,A132065,75,348.15,C22H40F6NP,22,40,1,0,0,1,6,0,0,0,0
CCCCCCCCCCCCCCCCCC[n+]1cccc(C)c1.F[P-](F)(F)(F)(F)F,C0844_A0011,A132065,87,360.15,C24H44F6NP,24,44,1,0,0,1,6,0,0,0,0
CCCCCCCCCCCCCCCCCC[n+]1ccc(C)cc1.F[P-](F)(F)(F)(F)F,C0222_A0011,A132065,88,361.15,C24H44F6NP,24,44,1,0,0,1,6,0,0,0,0
N#CCCC[n+]1ccccc1.[Cl-],C0233_A0033,A132065,101,374.15,C9H11ClN2,9,11,2,0,0,0,0,1,0,0,0
F[B-](F)(F)F.N#CCCC[n+]1ccccc1,C0233_A0020,A132065,62,335.15,C9H11BF4N2,9,11,2,0,0,0,4,0,0,0,0
N#CCCC[n+]1ccccc1.O=S(=O)([N-]S(=O)(=O)C(F)(F)F)C(F)(F)F,C0233_A0048,A132065,-65,208.15,C11H11F6N3O4S2,11,11,3,4,2,0,6,0,0,0,0
F[P-](F)(F)(F)(F)F.N#CCCC[n+]1ccccc1,C0233_A0011,A132065,95,368.15,C9H11F6N2P,9,11,2,0,0,1,6,0,0,0,0
CC[n+]1ccccc1.O=S(=O)([O-])OCC(F)(F)C(F)(F)C(F)(F)C(F)F,C0062_A0078,A132065,-11,262.15,C12H13F8NO4S,12,13,1,4,1,0,8,0,0,0,0
FC(F)(CC[n+]1ccccc1)C(F)(F)S(F)(F)(F)(F)F.O=S(=O)([N-]S(=O)(=O)C(F)(F)F)C(F)(F)F,C0541_A0048,A132065,33,306.15,C11H9F15N2O4S3,11,9,2,4,3,0,15,0,0,0,0
FC(F)(CCCC[n+]1ccccc1)C(F)(F)S(F)(F)(F)(F)F.O=S(=O)([N-]S(=O)(=O)C(F)(F)F)C(F)(F)F,C1057_A0048,A132065,18,291.15,C13H13F15N2O4S3,13,13,2,4,3,0,15,0,0,0,0
FC(F)(CC[n+]1ccccc1)C(F)(F)C(F)(F)C(F)(F)S(F)(F)(F)(F)F.O=S(=O)([N-]S(=O)(=O)C(F)(F)F)C(F)(F)F,C0570_A0048,A132065,36,309.15,C13H9F19N2O4S3,13,9,2,4,3,0,19,0,0,0,0
FCCC[n+]1ccc(-c2ccncc2)cc1.O=S(=O)([N-]S(=O)(=O)C(F)(F)F)C(F)(F)F,C1008_A0048,A132065,62,335.15,C15H14F7N3O4S2,15,14,3,4,2,0,7,0,0,0,0
FCCC[n+]1ccc(-c2ccncc2)cc1.O=S(=O)([O-])C(F)(F)F,C1008_A0084,A132065,88,361.15,C14H14F4N2O3S,14,14,2,3,1,0,4,0,0,0,0
FC(F)(F)CC[n+]1ccc(-c2ccncc2)cc1.O=S(=O)([N-]S(=O)(=O)C(F)(F)F)C(F)(F)F,C0096_A0048,A132065,67,340.15,C15H12F9N3O4S2,15,12,3,4,2,0,9,0,0,0,0
FC(F)(F)CC[n+]1ccc(-c2ccncc2)cc1.O=S(=O)([O-])C(F)(F)F,C0096_A0084,A132065,98,371.15,C14H12F6N2O3S,14,12,2,3,1,0,6,0,0,0,0
FC(F)(F)C(F)(F)C(F)(F)C(F)(F)C(F)(F)C(F)(F)CC[n+]1ccc(-c2ccncc2)cc1.O=S(=O)([N-]S(=O)(=O)C(F)(F)F)C(F)(F)F,C0063_A0048,A132065,52,325.15,C20H12F19N3O4S2,20,12,3,4,2,0,19,0,0,0,0
FC(F)(F)C(F)(F)C(F)(F)C(F)(F)C(F)(F)C(F)(F)CC[n+]1ccc(-c2ccncc2)cc1.O=S(=O)([O-])C(F)(F)F,C0063_A0084,A132065,104,377.15,C19H12F16N2O3S,19,12,2,3,1,0,16,0,0,0,0
FC(F)(F)C(F)(F)C(F)(F)C(F)(F)C(F)(F)C(F)(F)C(F)(F)C(F)(F)CC[n+]1ccc(-c2ccncc2)cc1.O=S(=O)([N-]S(=O)(=O)C(F)(F)F)C(F)(F)F,C1150_A0048,A132065,94,367.15,C22H12F23N3O4S2,22,12,3,4,2,0,23,0,0,0,0
FC(F)(F)C(F)(F)C(F)(F)C(F)(F)C(F)(F)C(F)(F)C(F)(F)C(F)(F)CC[n+]1ccc(-c2ccncc2)cc1.O=S(=O)([O-])C(F)(F)F,C1150_A0084,A132065,109,382.15,C21H12F20N2O3S,21,12,2,3,1,0,20,0,0,0,0
CCCC[n+]1cc(C)cc(C)c1.[Br-],C1087_A0004,A132065,95,368.15,C11H18BrN,11,18,1,0,0,0,0,0,1,0,0
CCCC[n+]1ccc(N(C)C)cc1.[Br-],C1083_A0004,A132065,222,495.15,C11H19BrN2,11,19,2,0,0,0,0,0,1,0,0
CCCCOC(=O)c1ccc[n+](CCCC)c1.O=S(=O)([N-]S(=O)(=O)C(F)(F)F)C(F)(F)F,C0425_A0048,A132065,15,288.15,C16H22F6N2O6S2,16,22,2,6,2,0,6,0,0,0,0
CCCCCC[n+]1cc(C)cc(C)c1.O=S(=O)([N-]S(=O)(=O)C(F)(F)F)C(F)(F)F,C0791_A0048,A132065,10,283.15,C15H22F6N2O4S2,15,22,2,4,2,0,6,0,0,0,0
CCCCCC[n+]1ccc(N(C)C)cc1.[Br-],C0061_A0004,A132065,196,469.15,C13H23BrN2,13,23,2,0,0,0,0,0,1,0,0
CCCCCC[n+]1ccc(N(C)C)c(C)c1.[Br-],C0009_A0004,A132065,119,392.15,C14H25BrN2,14,25,2,0,0,0,0,0,1,0,0
CCCCCC[n+]1ccc(N(C)C)c(C)c1.O=S(=O)([N-]S(=O)(=O)C(F)(F)F)C(F)(F)F,C0009_A0048,A132065,-2,271.15,C16H25F6N3O4S2,16,25,3,4,2,0,6,0,0,0,0
CCCCCC[n+]1ccc(N2CCC(C)CC2)cc1.O=S(=O)([N-]S(=O)(=O)C(F)(F)F)C(F)(F)F,C0787_A0048,A132065,37,310.15,C19H29F6N3O4S2,19,29,3,4,2,0,6,0,0,0,0
O=P([O-])(O)O.O=S(=O)(O)CCC[n+]1ccccc1,C0777_A0012,A132065,90,363.15,C8H14NO7PS,8,14,1,7,1,1,0,0,0,0,0
CCCCCCCCCCCC[n+]1ccc2ccccc2c1.FC(F)(F)c1cc([B-](c2cc(C(F)(F)F)cc(C(F)(F)F)c2)(c2cc(C(F)(F)F)cc(C(F)(F)F)c2)c2cc(C(F)(F)F)cc(C(F)(F)F)c2)cc(C(F)(F)F)c1,C0663_A0006,A132065,72,345.15,C53H44BF24N,53,44,1,0,0,0,24,0,0,0,0
CCCCCCCCCCCCCCCCCC[n+]1ccc2ccccc2c1.FC(F)(F)c1cc([B-](c2cc(C(F)(F)F)cc(C(F)(F)F)c2)(c2cc(C(F)(F)F)cc(C(F)(F)F)c2)c2cc(C(F)(F)F)cc(C(F)(F)F)c2)cc(C(F)(F)F)c1,C0619_A0006,A132065,31,304.15,C59H56BF24N,59,56,1,0,0,0,24,0,0,0,0
CCCC[N+]1=C(C(C)C)SCC1CC.[I-],C0516_A0069,A132065,137,410.15,C12H24INS,12,24,1,0,1,0,0,0,0,1,0
CCCC[N+]1=C(C(C)C)SCC1CC.F[B-](F)(F)F,C0516_A0020,A132065,111,384.15,C12H24BF4NS,12,24,1,0,1,0,4,0,0,0,0
CCCC[N+]1=C(C(C)C)SCC1CC.F[P-](F)(F)(F)(F)F,C0516_A0011,A132065,136,409.15,C12H24F6NPS,12,24,1,0,1,1,6,0,0,0,0
CCCCCCCCCCCC[N+]1=C(C(C)C)SCC1CC.F[P-](F)(F)(F)(F)F,C0681_A0011,A132065,42,315.15,C20H40F6NPS,20,40,1,0,1,1,6,0,0,0,0
C[S+](C)C.F[B-](F)(F)F,C0310_A0020,A132065,217,490.15,C3H9BF4S,3,9,0,0,1,0,4,0,0,0,0
C[S+](C)C.O=S(=O)([N-]S(=O)(=O)C(F)(F)F)C(F)(F)F,C0310_A0048,A132065,45,318.15,C5H9F6NO4S3,5,9,1,4,3,0,6,0,0,0,0
C[S+](C)C.N#C[N-]C#N,C0310_A0056,A132065,-1,272.15,C5H9N3S,5,9,3,0,1,0,0,0,0,0,0
C[S+](C)C.O=C([N-]S(=O)(=O)C(F)(F)F)C(F)(F)F,C0310_A0034,A132065,32,305.15,C6H9F6NO3S2,6,9,1,3,2,0,6,0,0,0,0
CC[S+](CC)CC.O=C([N-]S(=O)(=O)C(F)(F)F)C(F)(F)F,C0598_A0034,A132065,32,305.15,C9H15F6NO3S2,9,15,1,3,2,0,6,0,0,0,0
CCCC[S+](CCCC)CCCC.O=S(=O)([N-]S(=O)(=O)C(F)(F)F)C(F)(F)F,C0913_A0048,A132065,-8,265.15,C14H27F6NO4S3,14,27,1,4,3,0,6,0,0,0,0
CC[S+](C)C.N#C[N-]C#N,C0729_A0056,A132065,-28,245.15,C6H11N3S,6,11,3,0,1,0,0,0,0,0,0
C[N+](C)(C)C.O=S(=O)([N-]S(=O)(=O)C(F)(F)F)C(F)(F)F,C0985_A0048,A132065,136,409.15,C6H12F6N2O4S2,6,12,2,4,2,0,6,0,0,0,0
CC[N+](C)(C)C.O=S(=O)([N-]S(=O)(=O)C(F)(F)F)C(F)(F)F,C0767_A0048,A132065,105,378.15,C7H14F6N2O4S2,7,14,2,4,2,0,6,0,0,0,0
CC[N+](C)(C)C.O=C([N-]S(=O)(=O)C(F)(F)F)C(F)(F)F,C0767_A0034,A132065,-10,263.15,C8H14F6N2O3S,8,14,2,3,1,0,6,0,0,0,0
COC[N+](C)(C)C.F[B-](F)(F)F,C0284_A0020,A132065,46,319.15,C5H14BF4NO,5,14,1,1,0,0,4,0,0,0,0
COC[N+](C)(C)C.O=S(=O)([N-]S(=O)(=O)C(F)(F)F)C(F)(F)F,C0284_A0048,A132065,5,278.15,C7H14F6N2O5S2,7,14,2,5,2,0,6,0,0,0,0
CCC[N+](C)(C)C.O=S(=O)([N-]S(=O)(=O)C(F)(F)F)C(F)(F)F,C0243_A0048,A132065,19,292.15,C8H16F6N2O4S2,8,16,2,4,2,0,6,0,0,0,0
CCC[N+](C)(C)C.O=C([N-]S(=O)(=O)C(F)(F)F)C(F)(F)F,C0243_A0034,A132065,10,283.15,C9H16F6N2O3S,9,16,2,3,1,0,6,0,0,0,0
CCC[N+](C)(C)C.O=S(=O)([N-]S(=O)(=O)C(F)(F)C(F)(F)F)C(F)(F)F,C0243_A0074,A132065,19,292.15,C9H16F8N2O4S2,9,16,2,4,2,0,8,0,0,0,0
CC(C)[N+](C)(C)C.O=S(=O)([N-]S(=O)(=O)C(F)(F)F)C(F)(F)F,C0091_A0048,A132065,129,402.15,C8H16F6N2O4S2,8,16,2,4,2,0,6,0,0,0,0
CC(C)[N+](C)(C)C.O=C([N-]S(=O)(=O)C(F)(F)F)C(F)(F)F,C0091_A0034,A132065,29,302.15,C9H16F6N2O3S,9,16,2,3,1,0,6,0,0,0,0
CC[N+](C)(C)CC.O=S(=O)([N-]S(=O)(=O)C(F)(F)F)C(F)(F)F,C0441_A0048,A132065,96,369.15,C8H16F6N2O4S2,8,16,2,4,2,0,6,0,0,0,0
C=CC[N+](C)(C)C.O=S(=O)([N-]S(=O)(=O)C(F)(F)F)C(F)(F)F,C0247_A0048,A132065,41,314.15,C8H14F6N2O4S2,8,14,2,4,2,0,6,0,0,0,0
C=CC[N+](C)(C)C.O=C([N-]S(=O)(=O)C(F)(F)F)C(F)(F)F,C0247_A0034,A132065,-3,270.15,C9H14F6N2O3S,9,14,2,3,1,0,6,0,0,0,0
C#CC[N+](C)(C)C.O=S(=O)([N-]S(=O)(=O)C(F)(F)F)C(F)(F)F,C0717_A0048,A132065,45,318.15,C8H12F6N2O4S2,8,12,2,4,2,0,6,0,0,0,0
COC=C(C)[NH+](C)C.F[B-](F)(F)F,C0982_A0020,A132065,-16,257.15,C6H14BF4NO,6,14,1,1,0,0,4,0,0,0,0
COC=C(C)[NH+](C)C.O=C1O[B-]2(OC1=O)OC(=O)C(=O)O2,C0982_A0061,A132065,51,324.15,C10H14BNO9,10,14,1,9,0,0,0,0,0,0,0
CCC[N+](C)(C)CC.O=S(=O)([N-]S(=O)(=O)C(F)(F)F)C(F)(F)F,C0231_A0048,A132065,-14,259.15,C9H18F6N2O4S2,9,18,2,4,2,0,6,0,0,0,0
CC[N+](C)(CC)CC.O=S(=O)([N-]S(=O)(=O)C(F)(F)F)C(F)(F)F,C0597_A0048,A132065,129,402.15,C9H18F6N2O4S2,9,18,2,4,2,0,6,0,0,0,0
CC[N+](C)(CC)CC.O=C([N-]S(=O)(=O)C(F)(F)F)C(F)(F)F,C0597_A0034,A132065,20,293.15,C10H18F6N2O3S,10,18,2,3,1,0,6,0,0,0,0
CC[N+](C)(CC)CC.O=C1[N-]S(=O)(=O)c2ccccc21,C0597_A0007,A132065,26,299.15,C14H22N2O3S,14,22,2,3,1,0,0,0,0,0,0
CCOC=C(C)[NH+](C)C.O=C1O[B-]2(OC1=O)OC(=O)C(=O)O2,C0595_A0061,A132065,47,320.15,C11H16BNO9,11,16,1,9,0,0,0,0,0,0,0
CC[N+](C)(C)CCOC.O=C1O[B-]2(OC1=O)OC(=O)C(=O)O2,C0918_A0061,A132065,48,321.15,C11H18BNO9,11,18,1,9,0,0,0,0,0,0,0
CC[N+](CC)(CC)CC.O=S(=O)([N-]S(=O)(=O)C(F)(F)F)C(F)(F)F,C0687_A0048,A132065,105,378.15,C10H20F6N2O4S2,10,20,2,4,2,0,6,0,0,0,0
CC[N+](CC)(CC)CC.O=S(=O)([N-]S(=O)(=O)C(F)(F)C(F)(F)F)C(F)(F)C(F)(F)F,C0687_A0067,A132065,83,356.15,C12H20F10N2O4S2,12,20,2,4,2,0,10,0,0,0,0
CC[N+](CC)(CC)CC.O=C([N-]S(=O)(=O)C(F)(F)F)C(F)(F)F,C0687_A0034,A132065,20,293.15,C11H20F6N2O3S,11,20,2,3,1,0,6,0,0,0,0
CC[N+](CC)(CC)CC.O=S(=O)([N-]S(=O)(=O)C(F)(F)C(F)(F)F)C(F)(F)F,C0687_A0074,A132065,69,342.15,C11H20F8N2O4S2,11,20,2,4,2,0,8,0,0,0,0
CC[N+](CC)(CC)CC.O=S(=O)([O-])OCC(F)(F)F,C0687_A0080,A132065,5,278.15,C10H22F3NO4S,10,22,1,4,1,0,3,0,0,0,0
CC[N+](CC)(CC)CC.O=S(=O)([O-])OCC(F)(F)C(F)F,C0687_A0038,A132065,-9,264.15,C11H23F4NO4S,11,23,1,4,1,0,4,0,0,0,0
CC[N+](CC)(CC)CC.O=S(=O)([O-])OCC(F)(F)C(F)(F)C(F)(F)C(F)F,C0687_A0078,A132065,-13,260.15,C13H23F8NO4S,13,23,1,4,1,0,8,0,0,0,0
CC[N+](CC)(CC)CC.O=S(=O)([C-](S(=O)(=O)C(F)(F)F)S(=O)(=O)C(F)(F)F)C(F)(F)F,C0687_A0003,A132065,46,319.15,C12H20F9NO6S3,12,20,1,6,3,0,9,0,0,0,0
CCCC[N+](C)(C)CC.F[B-](F)(F)F,C0025_A0020,A132065,158,431.15,C8H20BF4N,8,20,1,0,0,0,4,0,0,0,0
CCCC[N+](C)(C)CC.O=S(=O)([N-]S(=O)(=O)C(F)(F)F)C(F)(F)F,C0025_A0048,A132065,-8,265.15,C10H20F6N2O4S2,10,20,2,4,2,0,6,0,0,0,0
CCCC[N+](C)(C)CCC.O=S(=O)([N-]S(=O)(=O)C(F)(F)F)C(F)(F)F,C0156_A0048,A132065,15,288.15,C11H22F6N2O4S2,11,22,2,4,2,0,6,0,0,0,0
CCCC[N+](C)(C)CCC.N#C[C-](C#N)C#N,C0156_A0055,A132065,7,280.15,C13H22N4,13,22,4,0,0,0,0,0,0,0,0
CCCCCC[N+](C)(C)C.F[B-](F)(F)F,C0709_A0020,A132065,126,399.15,C9H22BF4N,9,22,1,0,0,0,4,0,0,0,0
CCCCCC[N+](C)(C)C.O=S(=O)([N-]S(=O)(=O)C(F)(F)F)C(F)(F)F,C0709_A0048,A132065,27,300.15,C11H22F6N2O4S2,11,22,2,4,2,0,6,0,0,0,0
CC[N+](C)(C(C)C)C(C)C.O=S(=O)([N-]S(=O)(=O)C(F)(F)F)C(F)(F)F,C1011_A0048,A132065,140,413.15,C11H22F6N2O4S2,11,22,2,4,2,0,6,0,0,0,0
CC[N+](CC)(C(C)C)C(C)C.O=S(=O)([N-]S(=O)(=O)C(F)(F)F)C(F)(F)F,C0907_A0048,A132065,148,421.15,C12H24F6N2O4S2,12,24,2,4,2,0,6,0,0,0,0
CCCCCCCC[N+](C)(C)C.O=S(=O)([N-]S(=O)(=O)C(F)(F)F)C(F)(F)F,C0973_A0048,A132065,5,278.15,C13H26F6N2O4S2,13,26,2,4,2,0,6,0,0,0,0
CCC(C)C[N+](CC)(CC)CC.[Br-],C0910_A0004,A132065,100,373.15,C11H26BrN,11,26,1,0,0,0,0,0,1,0,0
CCC[N+](CCC)(CCC)CCC.O=S(=O)([N-]S(=O)(=O)C(F)(F)F)C(F)(F)F,C0656_A0048,A132065,105,378.15,C14H28F6N2O4S2,14,28,2,4,2,0,6,0,0,0,0
CCC[N+](CCC)(CCC)CCC.O=C1[N-]S(=O)(=O)c2ccccc21,C0656_A0007,A132065,96,369.15,C19H32N2O3S,19,32,2,3,1,0,0,0,0,0,0
CCCCCC[N+](CC)(CC)CC.O=S(=O)([N-]S(=O)(=O)C(F)(F)F)C(F)(F)F,C0352_A0048,A132065,20,293.15,C14H28F6N2O4S2,14,28,2,4,2,0,6,0,0,0,0
CCCCCC[N+](CC)(CC)CC.CS(=O)(=O)[N-]S(C)(=O)=O,C0352_A0032,A132065,-54,219.15,C14H34N2O4S2,14,34,2,4,2,0,0,0,0,0,0
CCCCCC[N+](CC)(CC)CC.CS(=O)(=O)[O-],C0352_A0054,A132065,62,335.15,C13H31NO3S,13,31,1,3,1,0,0,0,0,0,0
CCCCCC[N+](CC)(CC)CC.Cc1ccc(S(=O)(=O)[O-])cc1,C0352_A0030,A132065,109,382.15,C19H35NO3S,19,35,1,3,1,0,0,0,0,0,0
CCCC[N+](CCCC)(CCCC)CCCC.O=S(=O)([N-]S(=O)(=O)C(F)(F)F)C(F)(F)F,C0297_A0048,A132065,90,363.15,C18H36F6N2O4S2,18,36,2,4,2,0,6,0,0,0,0
CCCC[N+](CCCC)(CCCC)CCCC.O=S(=O)([O-])OCC(F)(F)F,C0297_A0080,A132065,80,353.15,C18H38F3NO4S,18,38,1,4,1,0,3,0,0,0,0
CCCC[N+](CCCC)(CCCC)CCCC.O=S(=O)([O-])OCC(F)(F)C(F)F,C0297_A0038,A132065,-4,269.15,C19H39F4NO4S,19,39,1,4,1,0,4,0,0,0,0