IL_SMILES,NAME,ARTICLEID,IL-Tm (deg-C),IL-Tm (K),MolecularFormula,C,H,N,O,S,P,F,Cl,Br,I,Si
CC[N+](C)(CC)CC.COS(=O)(=O)[O-],C0597_A0044,A132065,33,306.15,C8H21NO4S,8,21,1,4,1,0,0,0,0,0,0
CCCC[N+]1(CC)CCCC1.CCOS(=O)(=O)[O-],C1758_A0083,A132065,53,326.15,C12H27NO4S,12,27,1,4,1,0,0,0,0,0,0
CCOS(=O)(=O)[O-].CC[N+]1(C)CCCC1,C0876_A0083,A132065,25,298.15,C9H21NO4S,9,21,1,4,1,0,0,0,0,0,0
CC[NH2+]CC.O=S(=O)([O-])O,C1166_A0017,A132065,81,354.15,C4H13NO4S,4,13,1,4,1,0,0,0,0,0,0
C[NH+](C)C.O=S(=O)([O-])O,C2041_A0017,A132065,129,402.15,C3H11NO4S,3,11,1,4,1,0,0,0,0,0,0
C[NH+](C)C.O=P([O-])(O)O,C2041_A0012,A132065,116,389.15,C3H12NO4P,3,12,1,4,0,1,0,0,0,0,0
O=C([O-])CO.[NH3+]CCO,C0449_A0120,A132065,106,379.15,C4H11NO4,4,11,1,4,0,0,0,0,0,0,0
CCCC[n+]1ccn(C)c1.O=S(=O)([O-])O,C0505_A0017,A132065,29,302.15,C8H16N2O4S,8,16,2,4,1,0,0,0,0,0,0
CCCCCCCC[n+]1ccn(C)c1.O=S(=O)([N-]S(=O)(=O)C(F)(F)F)C(F)(F)F,C0290_A0048,A132065,-23,250.15,C14H23F6N3O4S2,14,23,3,4,2,0,6,0,0,0,0
C[NH2+]C.F[B-](F)(F)F,C1428_A0020,A132065,102,375.15,C2H8BF4N,2,8,1,0,0,0,4,0,0,0,0
CCCC[n+]1ccn(C)c1C.[Cl-],C1098_A0033,A132065,93,366.15,C9H17ClN2,9,17,2,0,0,0,0,1,0,0,0
CCC[N+](C)(CCC)CCC.O=S(=O)([N-]S(=O)(=O)C(F)(F)F)C(F)(F)F,C1867_A0048,A132065,46,319.15,C12H24F6N2O4S2,12,24,2,4,2,0,6,0,0,0,0
CCC[NH+]1C(C)=CC(C)N1C.O=S(=O)([N-]S(=O)(=O)C(F)(F)F)C(F)(F)F,C2049_A0048,A132065,17,290.15,C11H19F6N3O4S2,11,19,3,4,2,0,6,0,0,0,0
CC[NH+]1C=CN(C)C1.Cl[Al-](Cl)(Cl)Cl,C2050_A0085,A132065,6,279.15,C6H13AlCl4N2,6,13,2,0,0,0,0,4,0,0,0
C[NH+](C)N.[N-]=[N+]=[N-],C2051_A0073,A132065,38,311.15,C2H9N5,2,9,5,0,0,0,0,0,0,0,0
CCCC[N+]1(C)CCCC1.N#C[B-](C#N)(C#N)C#N,C0315_A0117,A132065,20,293.15,C13H20BN5,13,20,5,0,0,0,0,0,0,0,0
CC[NH+]1C=CN(C)C1.N#C[C-](C#N)C#N,C2050_A0055,A132065,-9,264.15,C10H13N5,10,13,5,0,0,0,0,0,0,0,0
CCCC[N+]1(C)CCCC1.N#C[C-](C#N)C#N,C0315_A0055,A132065,-7,266.15,C13H20N4,13,20,4,0,0,0,0,0,0,0,0
CCCCCCCC[N+](CC)(CC)CC.F[Sb-](F)(F)(F)(F)F,C1226_A0346,A132065,74,347.15,C14H32F6NSb,14,32,1,0,0,0,6,0,0,0,0
CC[n+]1ccccc1.O=S(=O)([N-]S(=O)(=O)C(F)(F)F)C(F)(F)F,C0062_A0048,A132065,30,303.15,C9H10F6N2O4S2,9,10,2,4,2,0,6,0,0,0,0
CCCCC[n+]1ccccc1.O=S(=O)([N-]S(=O)(=O)C(F)(F)F)C(F)(F)F,C1324_A0048,A132065,0,273.15,C12H16F6N2O4S2,12,16,2,4,2,0,6,0,0,0,0
CC[n+]1ccccc1.N#C[N-]C#N,C0062_A0056,A132065,-33,240.15,C9H10N4,9,10,4,0,0,0,0,0,0,0,0
CCC[n+]1ccccc1.N#C[N-]C#N,C0203_A0056,A132065,3,276.15,C10H12N4,10,12,4,0,0,0,0,0,0,0,0
CCCCC[N+]1(C)CCCC1.O=S(=O)([N-]S(=O)(=O)C(F)(F)F)C(F)(F)F,C0397_A0048,A132065,8,281.15,C12H22F6N2O4S2,12,22,2,4,2,0,6,0,0,0,0
CCCCCC[N+]1(C)CCCC1.O=S(=O)([N-]S(=O)(=O)C(F)(F)F)C(F)(F)F,C0821_A0048,A132065,3,276.15,C13H24F6N2O4S2,13,24,2,4,2,0,6,0,0,0,0
CCCCCCCC[N+](CC)(CC)CC.O=S(=O)([N-]S(=O)(=O)C(F)(F)F)C(F)(F)F,C1226_A0048,A132065,14,287.15,C16H32F6N2O4S2,16,32,2,4,2,0,6,0,0,0,0
COCC[N+]1(C)CCCC1.FC(F)(F)C(F)(F)[P-](F)(F)(F)(C(F)(F)C(F)(F)F)C(F)(F)C(F)(F)F,C0141_A0071,A132065,0,273.15,C14H18F18NOP,14,18,1,1,0,1,18,0,0,0,0
CCCCCC[N+]12CCN(CC1)CC2.O=S(=O)([N-]S(=O)(=O)C(F)(F)F)C(F)(F)F,C2054_A0048,A132065,36,309.15,C14H25F6N3O4S2,14,25,3,4,2,0,6,0,0,0,0
CC[N+](C)(C)CCO.O=S(=O)([N-]S(=O)(=O)C(F)(F)F)C(F)(F)F,C1306_A0048,A132065,6,279.15,C8H16F6N2O5S2,8,16,2,5,2,0,6,0,0,0,0
CC(C)(C)C(=O)[O-].C[N+](C)(C)CCO,C0482_A0161,A132065,96,369.15,C10H23NO3,10,23,1,3,0,0,0,0,0,0,0
CCCCCC=CCC=CCCCCCCCCN1C=C[NH+](C)C1.O=S(=O)([N-]S(=O)(=O)C(F)(F)F)C(F)(F)F,C2055_A0048,A132065,-47,226.15,C24H41F6N3O4S2,24,41,3,4,2,0,6,0,0,0,0
CCCCCCCCC=CCCCCCCCCN1C=C[NH+](C)C1.O=S(=O)([N-]S(=O)(=O)C(F)(F)F)C(F)(F)F,C2056_A0048,A132065,16,289.15,C24H43F6N3O4S2,24,43,3,4,2,0,6,0,0,0,0
CCCCCCCCC=CCCCCCCCCn1cc[n+](C)c1.O=S(=O)([N-]S(=O)(=O)C(F)(F)F)C(F)(F)F,C2025_A0048,A132065,-21,252.15,C24H41F6N3O4S2,24,41,3,4,2,0,6,0,0,0,0
CCCc1ccc[n+](C)c1.F[P-](F)(F)(F)(F)F,C2058_A0011,A132065,38,311.15,C9H14F6NP,9,14,1,0,0,1,6,0,0,0,0
CCC[N+]1(C)CCCC1.F[P-](F)(F)(F)(F)F,C0152_A0011,A132065,110,383.15,C8H18F6NP,8,18,1,0,0,1,6,0,0,0,0
CC[n+]1ccn(C)c1.F[As-](F)(F)(F)(F)F,C0460_A0348,A132065,53,326.15,C6H11AsF6N2,6,11,2,0,0,0,6,0,0,0,0
CC[NH+]1C=CN(C)C1.O=S(=O)([C-](S(=O)(=O)C(F)(F)F)S(=O)(=O)C(F)(F)F)C(F)(F)F,C2050_A0003,A132065,39,312.15,C10H13F9N2O6S3,10,13,2,6,3,0,9,0,0,0,0
CCCn1cc[n+](C)c1C.[Cl-],C0052_A0033,A132065,138,411.15,C8H15ClN2,8,15,2,0,0,0,0,1,0,0,0
CCCCCC[n+]1ccc2ccccc2c1.O=S(=O)([N-]S(=O)(=O)C(F)(F)F)C(F)(F)F,C1757_A0048,A132065,55,328.15,C17H20F6N2O4S2,17,20,2,4,2,0,6,0,0,0,0
C[n+]1ccn(CC#N)c1.N#Cc1nc(C(F)(F)F)[n-]c1C#N,C0448_A0230,A132065,93,366.15,C12H8F3N7,12,8,7,0,0,0,3,0,0,0,0
CCn1c(C)cc(C)[n+]1-c1ccccc1.CS(=O)(=O)[O-],C2059_A0054,A132065,122,395.15,C14H20N2O3S,14,20,2,3,1,0,0,0,0,0,0
CCCCn1c(C)cc(C)[n+]1-c1ccccc1.F[B-](F)(F)F,C2060_A0020,A132065,68,341.15,C15H21BF4N2,15,21,2,0,0,0,4,0,0,0,0
CCCn1c(C)cc(C)[n+]1-c1ccccc1.CS(=O)(=O)[O-],C2061_A0054,A132065,92,365.15,C15H22N2O3S,15,22,2,3,1,0,0,0,0,0,0
Cc1cc(C)[n+](-c2ccccc2)n1C.F[B-](F)(F)F,C2062_A0020,A132065,145,418.15,C12H15BF4N2,12,15,2,0,0,0,4,0,0,0,0
CCCn1c(C)cc(C)[n+]1-c1ccccc1.F[B-](F)(F)F,C2061_A0020,A132065,80,353.15,C14H19BF4N2,14,19,2,0,0,0,4,0,0,0,0
CCn1c(C)cc(C)[n+]1-c1ccccc1.F[B-](F)(F)F,C2059_A0020,A132065,113,386.15,C13H17BF4N2,13,17,2,0,0,0,4,0,0,0,0
CCCCCCCCCC[N+](CC)(CC)CCCCCCCCCC.[Br-],C2063_A0004,A132065,45,318.15,C24H52BrN,24,52,1,0,0,0,0,0,1,0,0
CCCCCCCCCCCC[N+](C)(C)C.[Br-],C2064_A0004,A132065,265,538.15,C15H34BrN,15,34,1,0,0,0,0,0,1,0,0
CCCCCCCCCCCCCCCC[N+](C)(C)C.[Br-],C2022_A0004,A132065,247,520.15,C19H42BrN,19,42,1,0,0,0,0,0,1,0,0
CCCC[n+]1ccc(C)cc1.O=S(=O)([O-])C(F)(F)C(F)(F)C(F)(F)C(F)(F)F,C0845_A0079,A132065,70,343.15,C14H16F9NO3S,14,16,1,3,1,0,9,0,0,0,0
CCCC[n+]1ccc(C)cc1.O=S(=O)([O-])C(F)(F)F,C0845_A0084,A132065,38,311.15,C11H16F3NO3S,11,16,1,3,1,0,3,0,0,0,0
CCCCCCCC[n+]1ccn(C)c1.O=S(=O)([O-])C(F)(F)C(F)(F)C(F)(F)C(F)(F)F,C0290_A0079,A132065,32,305.15,C16H23F9N2O3S,16,23,2,3,1,0,9,0,0,0,0
CCCCCCCC[n+]1ccn(C)c1.O=S(=O)([O-])C(F)(F)F,C0290_A0084,A132065,5,278.15,C13H23F3N2O3S,13,23,2,3,1,0,3,0,0,0,0
CCCCCCCC[n+]1ccn(C)c1.N#C[N-]C#N,C0290_A0056,A132065,-5,268.15,C14H23N5,14,23,5,0,0,0,0,0,0,0,0
CCCCCCCC[n+]1cc(CC)ccc1C.[I-],C2065_A0069,A132065,87,360.15,C16H28IN,16,28,1,0,0,0,0,0,0,1,0
CCCC[n+]1cc(C)cc(C)c1.O=S(=O)([O-])C(F)(F)F,C1087_A0084,A132065,91,364.15,C12H18F3NO3S,12,18,1,3,1,0,3,0,0,0,0
CCCCCCCC[n+]1cc(C)cc(C)c1.[I-],C1600_A0069,A132065,82,355.15,C15H26IN,15,26,1,0,0,0,0,0,0,1,0
CCCC[n+]1cccc(C)c1C.O=S(=O)([O-])C(F)(F)F,C1602_A0084,A132065,17,290.15,C12H18F3NO3S,12,18,1,3,1,0,3,0,0,0,0
CCCC[n+]1cc(C)cc(C)c1C.O=S(=O)([O-])C(F)(F)F,C2066_A0084,A132065,74,347.15,C13H20F3NO3S,13,20,1,3,1,0,3,0,0,0,0
CCCCCCCC[n+]1cc(C)cc(C)c1.O=S(=O)([O-])C(F)(F)F,C1600_A0084,A132065,76,349.15,C16H26F3NO3S,16,26,1,3,1,0,3,0,0,0,0
CCCC[n+]1cc(C)cc(C)c1.N#C[N-]C#N,C1087_A0056,A132065,-1,272.15,C13H18N4,13,18,4,0,0,0,0,0,0,0,0
CCCCCCCC[n+]1cc(CC)ccc1C.N#C[N-]C#N,C2065_A0056,A132065,53,326.15,C18H28N4,18,28,4,0,0,0,0,0,0,0,0
CCCC[n+]1cc(C)cc(C)c1.N#C[S-],C1087_A0015,A132065,13,286.15,C12H18N2S,12,18,2,0,1,0,0,0,0,0,0
CCCCCCCC[n+]1cc(C)cc(C)c1.N#C[S-],C1600_A0015,A132065,-38,235.15,C16H26N2S,16,26,2,0,1,0,0,0,0,0,0
CCCCCCCC[n+]1cc(C)cc(C)c1C.N#C[S-],C2067_A0015,A132065,20,293.15,C17H28N2S,17,28,2,0,1,0,0,0,0,0,0
CCCCCCCC[n+]1cc(C)cc(C)c1.F[B-](F)(F)F,C1600_A0020,A132065,56,329.15,C15H26BF4N,15,26,1,0,0,0,4,0,0,0,0
CCCCCCCCCCCC[n+]1cccc(C)c1.[Cl-],C1109_A0033,A132065,87,360.15,C18H32ClN,18,32,1,0,0,0,0,1,0,0,0
CCCCCCCC[n+]1cccc(C)c1.[Cl-],C1323_A0033,A132065,79,352.15,C14H24ClN,14,24,1,0,0,0,0,1,0,0,0
CCCC[n+]1cccc(C)c1.[Cl-],C1289_A0033,A132065,111,384.15,C10H16ClN,10,16,1,0,0,0,0,1,0,0,0
CCCCCCCCCC[n+]1cccc(C)c1.[Cl-],C2068_A0033,A132065,76,349.15,C16H28ClN,16,28,1,0,0,0,0,1,0,0,0
CCCCCCCCCCCCCCCCCC[n+]1cccc(C)c1.[Cl-],C0844_A0033,A132065,112,385.15,C24H44ClN,24,44,1,0,0,0,0,1,0,0,0
CCCCCCCCCCCCCCCC[n+]1cccc(C)c1.[Cl-],C0701_A0033,A132065,110,383.15,C22H40ClN,22,40,1,0,0,0,0,1,0,0,0
CCCCCCCCCCCCCC[n+]1cccc(C)c1.[Cl-],C0721_A0033,A132065,95,368.15,C20H36ClN,20,36,1,0,0,0,0,1,0,0,0
CCCCCCOC[n+]1ccccc1.O=S(=O)([O-])NC1CCCCC1,C2069_A0266,A132065,-35,238.15,C18H32N2O4S,18,32,2,4,1,0,0,0,0,0,0
CCCCCCCCCCCCOC[n+]1ccccc1.O=S(=O)([O-])NC1CCCCC1,C2070_A0266,A132065,33,306.15,C24H44N2O4S,24,44,2,4,1,0,0,0,0,0,0
CCCCCCCCCCCOC[n+]1ccccc1.O=S(=O)([O-])NC1CCCCC1,C2071_A0266,A132065,24,297.15,C23H42N2O4S,23,42,2,4,1,0,0,0,0,0,0
CCCCCCCOC[n+]1ccccc1.O=S(=O)([O-])NC1CCCCC1,C2072_A0266,A132065,-14,259.15,C19H34N2O4S,19,34,2,4,1,0,0,0,0,0,0
CCCCCCCCCOC[n+]1ccccc1.O=S(=O)([O-])NC1CCCCC1,C2073_A0266,A132065,9,282.15,C21H38N2O4S,21,38,2,4,1,0,0,0,0,0,0
CCCCCCCCCCCC[n+]1ccccc1.O=S(=O)([O-])NC1CCCCC1,C0527_A0266,A132065,115,388.15,C23H42N2O3S,23,42,2,3,1,0,0,0,0,0,0
CCCCCCCCCCCCCCCC[n+]1ccccc1.O=S(=O)([O-])NC1CCCCC1,C0428_A0266,A132065,105,378.15,C27H50N2O3S,27,50,2,3,1,0,0,0,0,0,0
CCCCCCCCCC[N+](C)(C)CCCCCCCCCC.O=S(=O)([O-])NC1CCCCC1,C0514_A0266,A132065,50,323.15,C28H60N2O3S,28,60,2,3,1,0,0,0,0,0,0
CCCC[NH+]1C=CN(C)C1.O=S(=O)([O-])NC1CCCCC1,C2074_A0266,A132065,72,345.15,C14H29N3O3S,14,29,3,3,1,0,0,0,0,0,0
CCCC[N+](C)(CCCC)CCCC.COS(=O)(=O)[O-],C0337_A0044,A132065,62,335.15,C14H33NO4S,14,33,1,4,1,0,0,0,0,0,0
CCCC[P+](C)(CCCC)CCCC.COS(=O)(=O)[O-],C1196_A0044,A132065,38,311.15,C14H33O4PS,14,33,0,4,1,1,0,0,0,0,0
CCC[N+]1(C)CCCCC1.[Br-],C0155_A0004,A132065,250,523.15,C9H20BrN,9,20,1,0,0,0,0,0,1,0,0
CCCC[N+](CCCC)(CCCC)CCCC.O=S(=O)([O-])O,C0297_A0017,A132065,172,445.15,C16H37NO4S,16,37,1,4,1,0,0,0,0,0,0
CCCCCCC[n+]1cccc(C)c1.[Cl-],C2075_A0033,A132065,72,345.15,C13H22ClN,13,22,1,0,0,0,0,1,0,0,0
CCCCCCCCC[n+]1cccc(C)c1.[Cl-],C2076_A0033,A132065,64,337.15,C15H26ClN,15,26,1,0,0,0,0,1,0,0,0
CCCCC[n+]1cccc(C)c1.[Cl-],C2077_A0033,A132065,92,365.15,C11H18ClN,11,18,1,0,0,0,0,1,0,0,0
CCC[n+]1cccc(C)c1.[Cl-],C1541_A0033,A132065,92,365.15,C9H14ClN,9,14,1,0,0,0,0,1,0,0,0
CCCCCC[n+]1cccc(C)c1.[Cl-],C1309_A0033,A132065,77,350.15,C12H20ClN,12,20,1,0,0,0,0,1,0,0,0
C=CC[n+]1cccc(C)c1.[Cl-],C2078_A0033,A132065,108,381.15,C9H12ClN,9,12,1,0,0,0,0,1,0,0,0
CC[N+]1(C)CCCC1.O=S(=O)([N-]S(=O)(=O)C(F)(F)F)C(F)(F)F,C0876_A0048,A132065,91,364.15,C9H16F6N2O4S2,9,16,2,4,2,0,6,0,0,0,0
CC[N+]1(C)CCCC1.F[B-](F)(F)F,C0876_A0020,A132065,66,339.15,C7H16BF4N,7,16,1,0,0,0,4,0,0,0,0
CCCC[N+]1(C)CCCC1.[Br-],C0315_A0004,A132065,204,477.15,C9H20BrN,9,20,1,0,0,0,0,0,1,0,0
CCCCCCCCCCCCc1cc[nH+]cc1.[I-],C2079_A0069,A132065,92,365.15,C17H30IN,17,30,1,0,0,0,0,0,0,1,0
CCCCCCCCCCCCc1cc[nH+]cc1.[Cl-],C2079_A0033,A132065,124,397.15,C17H30ClN,17,30,1,0,0,0,0,1,0,0,0
CCCCCCCCCCCCCCCCC(CCCCCCCCCCCCCCCC)c1cc[n+](C)cc1.[I-],C2080_A0069,A132065,72,345.15,C39H74IN,39,74,1,0,0,0,0,0,0,1,0
CCCCCCCCCCCCCCCCC(CCCCCCCCCCCCCCCC)c1cc[n+](C)cc1.[Cl-],C2080_A0033,A132065,64,337.15,C39H74ClN,39,74,1,0,0,0,0,1,0,0,0
CCCCCCCCCCCCc1cc[n+](C)cc1.[Cl-],C2081_A0033,A132065,51,324.15,C18H32ClN,18,32,1,0,0,0,0,1,0,0,0
CCCCCCCCCc1cc[nH+]cc1.[Cl-],C2082_A0033,A132065,119,392.15,C14H24ClN,14,24,1,0,0,0,0,1,0,0,0
CCCCCCCCCCCCc1cc[n+](C)cc1.[I-],C2081_A0069,A132065,113,386.15,C18H32IN,18,32,1,0,0,0,0,0,0,1,0
CCCCCCCCCCCCc1cc[n+](C)cc1.[O-][Cl+3]([O-])([O-])[O-],C2081_A0051,A132065,93,366.15,C18H32ClNO4,18,32,1,4,0,0,0,1,0,0,0
C[n+]1ccn(Cc2ccc3ccccc3c2)c1.O=S(=O)([N-]S(=O)(=O)C(F)(F)F)C(F)(F)F,C2083_A0048,A132065,45,318.15,C17H15F6N3O4S2,17,15,3,4,2,0,6,0,0,0,0
O=S(=O)([N-]S(=O)(=O)C(F)(F)F)C(F)(F)F.c1ccc(Cn2cc[n+](Cc3ccccc3)c2)cc1,C0841_A0048,A132065,42,315.15,C19H17F6N3O4S2,19,17,3,4,2,0,6,0,0,0,0
CCCC[N+](C)(C)C.O=S(=O)([N-]S(=O)(=O)C(F)(F)F)C(F)(F)F,C1095_A0048,A132065,19,292.15,C9H18F6N2O4S2,9,18,2,4,2,0,6,0,0,0,0
CCCCCCCCCC[n+]1ccn(C)c1.O=S(=O)([O-])C(F)(F)F,C0515_A0084,A132065,23,296.15,C15H27F3N2O3S,15,27,2,3,1,0,3,0,0,0,0
CC[n+]1cccc(C)c1.O=C([O-])C(F)(F)C(F)(F)C(F)(F)C(F)(F)F,C1187_A0350,A132065,2,275.15,C13H12F9NO2,13,12,1,2,0,0,9,0,0,0,0
CCCC[N+]1(C)CCCC1.O=S(=O)([N-]S(=O)(=O)C(F)(F)C(F)(F)C(F)(F)C(F)(F)F)C(F)(F)C(F)(F)C(F)(F)C(F)(F)F,C0315_A0028,A132065,98,371.15,C17H20F18N2O4S2,17,20,2,4,2,0,18,0,0,0,0
CC[N+]1(C)CCCC1.O=S(=O)([N-]S(=O)(=O)C(F)(F)C(F)(F)C(F)(F)C(F)(F)F)C(F)(F)C(F)(F)C(F)(F)C(F)(F)F,C0876_A0028,A132065,155,428.15,C15H16F18N2O4S2,15,16,2,4,2,0,18,0,0,0,0
C[N+](C)(C)CCO.O=S(=O)([N-]S(=O)(=O)C(F)(F)C(F)(F)C(F)(F)C(F)(F)F)C(F)(F)C(F)(F)C(F)(F)C(F)(F)F,C0482_A0028,A132065,30,303.15,C13H14F18N2O5S2,13,14,2,5,2,0,18,0,0,0,0
C[N+](C)(C)CCO.O=S(=O)([O-])C(F)(F)C(F)(F)C(F)(F)C(F)(F)F,C0482_A0079,A132065,163,436.15,C9H14F9NO4S,9,14,1,4,1,0,9,0,0,0,0
CCCCCCCCCC[n+]1ccn(C)c1.F[B-](F)(F)F,C0515_A0020,A132065,7,280.15,C14H27BF4N2,14,27,2,0,0,0,4,0,0,0,0
C[N+](C)(C)CCO.O=S(=O)([N-]S(=O)(=O)C(F)(F)F)C(F)(F)F,C0482_A0048,A132065,33,306.15,C7H14F6N2O5S2,7,14,2,5,2,0,6,0,0,0,0
CC[n+]1ccccc1.CS(=O)(=O)[O-],C0062_A0054,A132065,62,335.15,C8H13NO3S,8,13,1,3,1,0,0,0,0,0,0
CC[n+]1ccccc1.O=S(=O)([O-])C(F)(F)F,C0062_A0084,A132065,32,305.15,C8H10F3NO3S,8,10,1,3,1,0,3,0,0,0,0
CCCCCCCC[N+](C)(CCCCCCCC)CCCCCCCC.O=C([O-])C(F)(F)F,C0979_A0064,A132065,12,285.15,C27H54F3NO2,27,54,1,2,0,0,3,0,0,0,0
CCCC[N+]1(C)CCCC1.O=S(=O)([O-])C(F)(F)F,C0315_A0084,A132065,5,278.15,C10H20F3NO3S,10,20,1,3,1,0,3,0,0,0,0
CCC[n+]1ccn(C)c1.[I-],C0811_A0069,A132065,18,291.15,C7H13IN2,7,13,2,0,0,0,0,0,0,1,0
F[B-](F)(F)F.c1ccc2sc[nH+]c2c1,C2084_A0020,A132065,125,398.15,C7H6BF4NS,7,6,1,0,1,0,4,0,0,0,0
Cc1ccc(S(=O)(=O)[O-])cc1.c1ccc2sc[nH+]c2c1,C2084_A0030,A132065,120,393.15,C14H13NO3S2,14,13,1,3,2,0,0,0,0,0,0
CS(=O)(=O)[O-].c1ccc2sc[nH+]c2c1,C2084_A0054,A132065,105,378.15,C8H9NO3S2,8,9,1,3,2,0,0,0,0,0,0
O=S(=O)([O-])C(F)(F)F.c1ccc2sc[nH+]c2c1,C2084_A0084,A132065,128,401.15,C8H6F3NO3S2,8,6,1,3,2,0,3,0,0,0,0
CCCCCCCCOS(=O)(=O)[O-].CCCC[n+]1ccn(C)c1,C0505_A0114,A132065,34,307.15,C16H32N2O4S,16,32,2,4,1,0,0,0,0,0,0
O=[N+]([O-])[O-].[N-]=[N+]=NCC[NH+]1C=NC(N=[N+]=[N-])=N1,C2085_A0090,A132065,-54,219.15,C4H6N10O3,4,6,10,3,0,0,0,0,0,0,0
Cn1cn[n+](CCN=[N+]=[N-])c1.O=[N+]([O-])[O-],C0826_A0090,A132065,-57,216.15,C5H9N7O3,5,9,7,3,0,0,0,0,0,0,0
Cn1cn[n+](CCN=[N+]=[N-])c1.[O-][Cl+3]([O-])([O-])[O-],C0826_A0051,A132065,-52,221.15,C5H9ClN6O4,5,9,6,4,0,0,0,1,0,0,0
C[n+]1cn(CCN=[N+]=[N-])cn1.O=[N+]([O-])[O-],C0583_A0090,A132065,-56,217.15,C5H9N7O3,5,9,7,3,0,0,0,0,0,0,0
[N-]=[N+]=NCC[n+]1cn(N)cn1.[O-][Cl+3]([O-])([O-])[O-],C0554_A0051,A132065,-46,227.15,C4H8ClN7O4,4,8,7,4,0,0,0,1,0,0,0
Cn1c[n+](C)nc1N=[N+]=[N-].[I-],C0175_A0069,A132065,116,389.15,C4H7IN6,4,7,6,0,0,0,0,0,0,1,0
C[n+]1cn(N)cn1.[I-],C0391_A0069,A132065,101,374.15,C3H7IN4,3,7,4,0,0,0,0,0,0,1,0
Cn1c[n+](C)cn1.I[I-]I,C0593_A0351,A132065,110,383.15,C4H8I3N3,4,8,3,0,0,0,0,0,0,3,0
[N-]=[N+]=NC1=NC=C[NH2+]1.[O-][Cl+3]([O-])([O-])[O-],C2086_A0051,A132065,116,389.15,C3H4ClN5O4,3,4,5,4,0,0,0,1,0,0,0
O=[N+]([O-])[O-].[N-]=[N+]=NC1=NC=C[NH2+]1,C2086_A0090,A132065,124,397.15,C3H4N6O3,3,4,6,3,0,0,0,0,0,0,0
CC1=[NH+]N(C)NN1C.O=[N+]([O-])[O-],C0420_A0090,A132065,94,367.15,C4H11N5O3,4,11,5,3,0,0,0,0,0,0,0
[N-]=[N+]=NC1=N[NH2+]C=N1.[O-][Cl+3]([O-])([O-])[O-],C0689_A0051,A132065,123,396.15,C2H3ClN6O4,2,3,6,4,0,0,0,1,0,0,0
CC(C)C[n+]1ccn(C)c1.O=S(=O)([N-]S(=O)(=O)C(F)(F)F)C(F)(F)F,C0267_A0048,A132065,-16,257.15,C10H15F6N3O4S2,10,15,3,4,2,0,6,0,0,0,0
C[NH+]1C=CN(CCCCN2C=C[NH+](C)C2)C1.F[P-](F)(F)(F)(F)F,C2087_A0011,A132065,118,391.15,C12H24F6N4P+,12,24,4,0,0,1,6,0,0,0,0
CC[n+]1ccccc1.F[P-](F)(F)(F)(F)F,C0062_A0011,A132065,103,376.15,C7H10F6NP,7,10,1,0,0,1,6,0,0,0,0
C=CC[NH+](CC)CC.O=S(=O)([O-])C(F)(F)F,C2088_A0084,A132065,-14,259.15,C8H16F3NO3S,8,16,1,3,1,0,3,0,0,0,0
CCC[NH+](C)C.O=S(=O)([O-])C(F)(F)F,C2089_A0084,A132065,20,293.15,C6H14F3NO3S,6,14,1,3,1,0,3,0,0,0,0
CC[NH+](C)CC.O=S(=O)([O-])C(F)(F)F,C2090_A0084,A132065,-6,267.15,C6H14F3NO3S,6,14,1,3,1,0,3,0,0,0,0
CCC[NH+](CC)CC.O=S(=O)([O-])C(F)(F)F,C2091_A0084,A132065,-14,259.15,C8H18F3NO3S,8,18,1,3,1,0,3,0,0,0,0
C=CC[NH+](C)C.O=S(=O)([O-])C(F)(F)F,C2092_A0084,A132065,16,289.15,C6H12F3NO3S,6,12,1,3,1,0,3,0,0,0,0
CCC[NH+](C)CCC.O=S(=O)([O-])C(F)(F)F,C2093_A0084,A132065,17,290.15,C8H18F3NO3S,8,18,1,3,1,0,3,0,0,0,0
C=CC[NH+](C)CC=C.O=S(=O)([O-])C(F)(F)F,C2094_A0084,A132065,-19,254.15,C8H14F3NO3S,8,14,1,3,1,0,3,0,0,0,0
CCCCCCCC[n+]1cccc2ccccc21.O=S(=O)([N-]S(=O)(=O)C(F)(F)F)C(F)(F)F,C2095_A0048,A132065,48,321.15,C19H24F6N2O4S2,19,24,2,4,2,0,6,0,0,0,0
[NH3+]O.[O-][Cl+3]([O-])([O-])[O-],C2096_A0051,A132065,88,361.15,H4ClNO5,0,4,1,5,0,0,0,1,0,0,0
C[N+](C)(C)CCO.O=C([O-])C(F)(F)F,C0482_A0064,A132065,32,305.15,C7H14F3NO3,7,14,1,3,0,0,3,0,0,0,0
C[N+](C)(C)CCO.O=C([O-])C(F)(F)C(F)(F)F,C0482_A0352,A132065,71,344.15,C8H14F5NO3,8,14,1,3,0,0,5,0,0,0,0
C[N+](C)(C)CCO.O=C([O-])C(F)(F)C(F)(F)C(F)(F)F,C0482_A0186,A132065,39,312.15,C9H14F7NO3,9,14,1,3,0,0,7,0,0,0,0
C[N+](C)(C)CCO.O=C([O-])C(F)(F)C(F)(F)C(F)(F)C(F)(F)F,C0482_A0350,A132065,23,296.15,C10H14F9NO3,10,14,1,3,0,0,9,0,0,0,0
C[N+](C)(C)CCO.O=C([O-])C(F)(F)C(F)(F)C(F)(F)C(F)(F)C(F)(F)F,C0482_A0353,A132065,47,320.15,C11H14F11NO3,11,14,1,3,0,0,11,0,0,0,0
C[N+](C)(C)CCO.O=C([O-])C(F)(F)C(F)(F)C(F)(F)C(F)(F)C(F)(F)C(F)(F)F,C0482_A0354,A132065,48,321.15,C12H14F13NO3,12,14,1,3,0,0,13,0,0,0,0
C[N+](C)(C)CCO.O=C([O-])C(F)(F)C(F)(F)C(F)(F)C(F)(F)C(F)(F)C(F)(F)C(F)(F)F,C0482_A0188,A132065,64,337.15,C13H14F15NO3,13,14,1,3,0,0,15,0,0,0,0
[F-].[NH4+],C1273_A0347,A132065,110,383.15,H4FN,0,4,1,0,0,0,1,0,0,0,0
CCCCCCCC[P+](CCCCCCCC)(CCCCCCCC)CCCCCCCC.Cc1cc(Cl)ccc1OC(C)C(=O)[O-],C1505_A0343,A132065,10,283.15,C42H78ClO3P,42,78,0,3,0,1,0,1,0,0,0
CCCC[n+]1ccn(C)c1.Cc1cc(Cl)ccc1OC(C)C(=O)[O-],C0505_A0343,A132065,6,279.15,C18H25ClN2O3,18,25,2,3,0,0,0,1,0,0,0
CCCCCCCCCCCC[n+]1ccccc1.O=C([O-])COc1ccc(Cl)cc1Cl,C0527_A0341,A132065,-34,239.15,C25H35Cl2NO3,25,35,1,3,0,0,0,2,0,0,0
CCCCCCCCCCCC[n+]1ccccc1.Cc1cc(Cl)ccc1OCC(=O)[O-],C0527_A0340,A132065,-31,242.15,C26H38ClNO3,26,38,1,3,0,0,0,1,0,0,0
CCCCCCCCCCCCCCCC[n+]1ccccc1.Cc1cc(Cl)ccc1OCC(=O)[O-],C0428_A0340,A132065,6.5,279.65,C30H46ClNO3,30,46,1,3,0,0,0,1,0,0,0
CCCCCCCCCC[N+](C)(C)CCO.[Br-],C1562_A0004,A132065,156,429.15,C14H32BrNO,14,32,1,1,0,0,0,0,1,0,0
CCCCCCCCCC[N+]1(C)CCOCC1.[Br-],C2098_A0004,A132065,188,461.15,C15H32BrNO,15,32,1,1,0,0,0,0,1,0,0
CCCCCCCCCCCC[N+](C)(C)CCOCCO.[Br-],C2099_A0004,A132065,56,329.15,C18H40BrNO2,18,40,1,2,0,0,0,0,1,0,0
CC(C)[NH3+].O=C([O-])COc1ccc(Cl)cc1Cl,C2100_A0341,A132065,121,394.15,C11H15Cl2NO3,11,15,1,3,0,0,0,2,0,0,0
C[NH2+]C.O=C([O-])COc1ccc(Cl)cc1Cl,C1428_A0341,A132065,120,393.15,C10H13Cl2NO3,10,13,1,3,0,0,0,2,0,0,0
O=C([O-])COc1ccc(Cl)cc1Cl.OCC[NH2+]CCO,C1163_A0341,A132065,83,356.15,C12H17Cl2NO5,12,17,1,5,0,0,0,2,0,0,0
O=C([O-])COc1ccc(Cl)cc1Cl.OCC[NH+](CCO)CCO,C1164_A0341,A132065,143,416.15,C14H21Cl2NO6,14,21,1,6,0,0,0,2,0,0,0
CCCCC(CC)COC(=O)CC(C(=O)OCC(CC)CCCC)S(=O)(=O)[O-].CCCC[P+](CCCC)(CCCC)CC(=O)O,C2103_A0325,A132065,38,311.15,C34H67O9PS,34,67,0,9,1,1,0,0,0,0,0
CCCCCCCCCCCCCCCCCC(=O)[O-].CCCC[P+](CC)(CCCC)CCCC,C1197_A0324,A132065,-21,252.15,C32H67O2P,32,67,0,2,0,1,0,0,0,0,0
CC(C)C1=CC2=CCC3C(C)(C(=O)[O-])CCCC3(C)C2CC1.CCCCCCCCCCCCCCCC[N+](C)(C)C,C2022_A0356,A132065,79,352.15,C39H71NO2,39,71,1,2,0,0,0,0,0,0,0
CC(C)C1=CC2=CCC3C(C)(C(=O)[O-])CCCC3(C)C2CC1.CCCCCCCCCCCCCCCCCC[N+](C)(C)C,C2023_A0356,A132065,-15,258.15,C41H75NO2,41,75,1,2,0,0,0,0,0,0,0
CC(C)C1=CC2=CCC3C(C)(C(=O)[O-])CCCC3(C)C2CC1.CCCCCCCCCC[N+](C)(C)CCCCCCCCCC,C0514_A0356,A132065,12,285.15,C42H77NO2,42,77,1,2,0,0,0,0,0,0,0
CCCC[n+]1ccn(C)c1.[NH-]S(=O)(=O)C(F)(F)F,C0505_A0357,A132065,17,290.15,C9H16F3N3O2S,9,16,3,2,1,0,3,0,0,0,0
CCCC[N+]1(C)CCCC1.[NH-]S(=O)(=O)C(F)(F)F,C0315_A0357,A132065,16,289.15,C10H21F3N2O2S,10,21,2,2,1,0,3,0,0,0,0
CCCC[N+](C)(C)C.[NH-]S(=O)(=O)C(F)(F)F,C1095_A0357,A132065,56,329.15,C8H19F3N2O2S,8,19,2,2,1,0,3,0,0,0,0
CCCCCCCC[N+](C)(CCCCCCCC)CCCCCCCC.[NH-]S(=O)(=O)C(F)(F)F,C0979_A0357,A132065,11,284.15,C26H55F3N2O2S,26,55,2,2,1,0,3,0,0,0,0
C[n+]1cc2n(n1)CCCC2.[I-],C2107_A0069,A132065,134,407.15,C7H12IN3,7,12,3,0,0,0,0,0,0,1,0
CC[n+]1cc2n(n1)CCCC2.[I-],C2108_A0069,A132065,114,387.15,C8H14IN3,8,14,3,0,0,0,0,0,0,1,0
CCC[n+]1cc2n(n1)CCCC2.[I-],C2109_A0069,A132065,83,356.15,C9H16IN3,9,16,3,0,0,0,0,0,0,1,0
CCCC[n+]1cc2n(n1)CCCC2.[I-],C2110_A0069,A132065,73,346.15,C10H18IN3,10,18,3,0,0,0,0,0,0,1,0
COC(=O)C=Cc1ccc(OCCC[n+]2ccn(C)c2)cc1.O=S(=O)([N-]S(=O)(=O)C(F)(F)F)C(F)(F)F,C2048_A0048,A132065,84,357.15,C19H21F6N3O7S2,19,21,3,7,2,0,6,0,0,0,0