IL_SMILES,NAME,ARTICLEID,IL-Tm (deg-C),IL-Tm (K),MolecularFormula,C,H,N,O,S,P,F,Cl,Br,I,Si
CCC[N+](C)=C1N(C)CCN1C.[O-][Cl+3]([O-])([O-])[O-],C0046_A0051,A132065,39,312.15,C9H20ClN3O4,9,20,3,4,0,0,0,1,0,0,0
CCC[N+](C)=C1N(C)CCN1C.O=[N+]([O-])[O-],C0046_A0090,A132065,31,304.15,C9H20N4O3,9,20,4,3,0,0,0,0,0,0,0
CCCC[N+](C)=C1N(C)CCN1C.[O-][Cl+3]([O-])([O-])[O-],C0164_A0051,A132065,28,301.15,C10H22ClN3O4,10,22,3,4,0,0,0,1,0,0,0
CCCC[N+](C)=C1N(C)CCN1C.O=[N+]([O-])[O-],C0164_A0090,A132065,7,280.15,C10H22N4O3,10,22,4,3,0,0,0,0,0,0,0
CCCC[N+](C)=C1N(C)CCN1C.F[P-](F)(F)(F)(F)F,C0164_A0011,A132065,-15,258.15,C10H22F6N3P,10,22,3,0,0,1,6,0,0,0,0
CCC[N+](C)=C1N(C)CCCN1C.[O-][Cl+3]([O-])([O-])[O-],C1029_A0051,A132065,128,401.15,C10H22ClN3O4,10,22,3,4,0,0,0,1,0,0,0
CCC[N+](C)=C1N(C)CCCN1C.O=[N+]([O-])[O-],C1029_A0090,A132065,57,330.15,C10H22N4O3,10,22,4,3,0,0,0,0,0,0,0
CCCC[N+](C)=C1N(C)CCCN1C.[O-][Cl+3]([O-])([O-])[O-],C0568_A0051,A132065,78,351.15,C11H24ClN3O4,11,24,3,4,0,0,0,1,0,0,0
CCCC[N+](C)=C1N(C)CCCN1C.O=[N+]([O-])[O-],C0568_A0090,A132065,6,279.15,C11H24N4O3,11,24,4,3,0,0,0,0,0,0,0
CCC[N+](C)=C1N(C)COCN1C.[O-][Cl+3]([O-])([O-])[O-],C1019_A0051,A132065,94,367.15,C9H20ClN3O5,9,20,3,5,0,0,0,1,0,0,0
CCC[N+](C)=C1N(C)COCN1C.O=[N+]([O-])[O-],C1019_A0090,A132065,65,338.15,C9H20N4O4,9,20,4,4,0,0,0,0,0,0,0
CCCCCCOc1cc2c3cc(OCCCCCC)c(OCCCCCC)cc3c3cc(OCCCCC[NH+]=C(N(C)C)N(C)C)c(OCCCCCC)cc3c2cc1OCCCCCC.[Cl-],C0409_A0033,A132065,46,319.15,C58H94ClN3O6,58,94,3,6,0,0,0,1,0,0,0
C[P+](C)(C)C.O=S(=O)([N-]S(=O)(=O)C(F)(F)F)C(F)(F)F,C0926_A0048,A132065,150,423.15,C6H12F6NO4PS2,6,12,1,4,2,1,6,0,0,0,0
CC[P+](CC)(CC)CC.O=S(=O)([N-]S(=O)(=O)C(F)(F)F)C(F)(F)F,C0872_A0048,A132065,118,391.15,C10H20F6NO4PS2,10,20,1,4,2,1,6,0,0,0,0
CC[P+](CC)(CC)CC.O=C([N-]S(=O)(=O)C(F)(F)F)C(F)(F)F,C0872_A0034,A132065,19,292.15,C11H20F6NO3PS,11,20,1,3,1,1,6,0,0,0,0
CCCCCCCCCCCCC[PH2+]C.[Cl-],C0057_A0033,A132065,101,374.15,C14H32ClP,14,32,0,0,0,1,0,1,0,0,0
CCCCCCCCCCCCC[PH2+]C.[Br-],C0057_A0004,A132065,95,368.15,C14H32BrP,14,32,0,0,0,1,0,0,1,0,0
CCCCCCCCCCCCC[PH2+]C.O=[N+]([O-])[O-],C0057_A0090,A132065,60,333.15,C14H32NO3P,14,32,1,3,0,1,0,0,0,0,0
CCCCCCCCCCCCCC[P+](CCCCCC)(CCCCCC)CCCCCC.F[B-](F)(F)F,C1119_A0020,A132065,39,312.15,C32H68BF4P,32,68,0,0,0,1,4,0,0,0,0
CCCCCCCCCCCCCC[P+](CCCCCC)(CCCCCC)CCCCCC.F[P-](F)(F)(F)(F)F,C1119_A0011,A132065,40,313.15,C32H68F6P2,32,68,0,0,0,2,6,0,0,0,0
CCCCCC[P+](CC)(CCCCCC)CCCCCC.[Br-],C0189_A0004,A132065,60,333.15,C20H44BrP,20,44,0,0,0,1,0,0,1,0,0
CCCCCC[P+](CCCCCC)(CCCCCC)CCCCCC.[Br-],C0455_A0004,A132065,70,343.15,C24H52BrP,24,52,0,0,0,1,0,0,1,0,0
CCCC[P+](c1ccccc1)(c1ccccc1)c1ccccc1.O=C([O-])c1ccccc1,C0990_A0031,A132065,19,292.15,C29H29O2P,29,29,0,2,0,1,0,0,0,0,0
CCCCCC[P+](C)(C)C.O=S(=O)([N-]S(=O)(=O)C(F)(F)F)C(F)(F)F,C0010_A0048,A132065,21,294.15,C11H22F6NO4PS2,11,22,1,4,2,1,6,0,0,0,0
CCCCCC[P+](C)(C)C.O=C([N-]S(=O)(=O)C(F)(F)F)C(F)(F)F,C0010_A0034,A132065,7,280.15,C12H22F6NO3PS,12,22,1,3,1,1,6,0,0,0,0
CCCCCC[P+](C)(C)C.O=S(=O)([N-]S(=O)(=O)C(F)(F)C(F)(F)F)C(F)(F)F,C0010_A0074,A132065,40,313.15,C12H22F8NO4PS2,12,22,1,4,2,1,8,0,0,0,0
O=S(=O)(Cl)CCCC[P+](c1ccccc1)(c1ccccc1)c1ccccc1.O=S(=O)([O-])C(F)(F)F,C0730_A0084,A132065,91,364.15,C23H23ClF3O5PS2,23,23,0,5,2,1,3,1,0,0,0
CC[P+](C)(CC)CC.O=S(=O)([N-]S(=O)(=O)C(F)(F)F)C(F)(F)F,C0738_A0048,A132065,97,370.15,C9H18F6NO4PS2,9,18,1,4,2,1,6,0,0,0,0
CCCC[P+](CC)(CC)CC.O=S(=O)([N-]S(=O)(=O)C(F)(F)F)C(F)(F)F,C0519_A0048,A132065,55,328.15,C12H24F6NO4PS2,12,24,1,4,2,1,6,0,0,0,0
CCCCC[P+](CC)(CC)CC.O=S(=O)([N-]S(=O)(=O)C(F)(F)F)C(F)(F)F,C0161_A0048,A132065,17,290.15,C13H26F6NO4PS2,13,26,1,4,2,1,6,0,0,0,0
CCCCCCCCCCCC[P+](CC)(CC)CC.O=S(=O)([N-]S(=O)(=O)C(F)(F)F)C(F)(F)F,C1136_A0048,A132065,13,286.15,C20H40F6NO4PS2,20,40,1,4,2,1,6,0,0,0,0
CC[P+](CC)(CC)COC.O=S(=O)([N-]S(=O)(=O)C(F)(F)F)C(F)(F)F,C1114_A0048,A132065,14,287.15,C10H20F6NO5PS2,10,20,1,5,2,1,6,0,0,0,0
CC[P+](CC)(CC)CCOC.O=S(=O)([N-]S(=O)(=O)C(F)(F)F)C(F)(F)F,C0678_A0048,A132065,10,283.15,C11H22F6NO5PS2,11,22,1,5,2,1,6,0,0,0,0
CCCCCCCCCCCCCCCC[P+](CCCC)(CCCC)CCCC.[Br-],C0638_A0004,A132065,59,332.15,C28H60BrP,28,60,0,0,0,1,0,0,1,0,0
CCOC(N(C)C)=[N+](C)C.FC(F)(F)C(F)(F)[P-](F)(F)(F)(C(F)(F)C(F)(F)F)C(F)(F)C(F)(F)F,C0722_A0071,A132065,33,306.15,C13H17F18N2OP,13,17,2,1,0,1,18,0,0,0,0
CCSC(N(C)C)=[N+](C)C.FC(F)(F)C(F)(F)[P-](F)(F)(F)(C(F)(F)C(F)(F)F)C(F)(F)C(F)(F)F,C0870_A0071,A132065,1,274.15,C13H17F18N2PS,13,17,2,0,1,1,18,0,0,0,0
C[N+]1(CCO)CCOCC1.[Br-],C1044_A0004,A132065,150,423.15,C7H16BrNO2,7,16,1,2,0,0,0,0,1,0,0
C[N+]1(CCO)CCOCC1.O=S(=O)([N-]S(=O)(=O)C(F)(F)F)C(F)(F)F,C1044_A0048,A132065,-42,231.15,C9H16F6N2O6S2,9,16,2,6,2,0,6,0,0,0,0
CCC[N+]1(C)CCOCC1.[O-][Cl+3]([O-])([O-])[O-],C0318_A0051,A132065,91,364.15,C8H18ClNO5,8,18,1,5,0,0,0,1,0,0,0
CCC[N+]1(C)CCOCC1.O=[N+]([O-])[O-],C0318_A0090,A132065,58,331.15,C8H18N2O4,8,18,2,4,0,0,0,0,0,0,0
CCC[N+]1(C)CCOCC1.F[P-](F)(F)(F)(F)F,C0318_A0011,A132065,86,359.15,C8H18F6NOP,8,18,1,1,0,1,6,0,0,0,0
C[N+]1(CCCF)CCOCC1.O=[N+]([O-])[O-],C0700_A0090,A132065,58,331.15,C8H17FN2O4,8,17,2,4,0,0,1,0,0,0,0
C[N+]1(CCCF)CCOCC1.O=S(=O)([O-])C(F)(F)F,C0700_A0084,A132065,68,341.15,C9H17F4NO4S,9,17,1,4,1,0,4,0,0,0,0
C[N+]1(CCCF)CCOCC1.F[P-](F)(F)(F)(F)F,C0700_A0011,A132065,80,353.15,C8H17F7NOP,8,17,1,1,0,1,7,0,0,0,0
C[N+]1(CCOCC(F)(F)F)CCOCC1.F[P-](F)(F)(F)(F)F,C0793_A0011,A132065,72,345.15,C9H17F9NO2P,9,17,1,2,0,1,9,0,0,0,0
C[N+]1(C(OCCC(F)(F)C(F)(F)C(F)F)C(F)F)CCOCC1.F[P-](F)(F)(F)(F)F,C0056_A0011,A132065,62,335.15,C12H18F14NO2P,12,18,1,2,0,1,14,0,0,0,0
C1COCC[NH2+]1.O=C([CH-]C(=O)C(F)(F)F)C(F)(F)F,C0440_A0010,A132065,62,335.15,C9H11F6NO3,9,11,1,3,0,0,6,0,0,0,0
C1COCC[NH2+]1.CC(C)(C)C(=O)[CH-]C(=O)C(F)(F)C(F)(F)C(F)(F)F,C0440_A0037,A132065,86,359.15,C14H20F7NO3,14,20,1,3,0,0,7,0,0,0,0
C1COCC[NH2+]1.O=C([CH-]C(=O)C(F)(F)F)c1ccco1,C0440_A0036,A132065,72,345.15,C12H14F3NO4,12,14,1,4,0,0,3,0,0,0,0
C1COCC[NH2+]1.O=C([CH-]C(=O)C(F)(F)F)c1cccs1,C0440_A0005,A132065,102,375.15,C12H14F3NO3S,12,14,1,3,1,0,3,0,0,0,0
CC[N+]1(C)CCOCC1.O=S(=O)([N-]S(=O)(=O)C(F)(F)F)C(F)(F)F,C0561_A0048,A132065,29,302.15,C9H16F6N2O5S2,9,16,2,5,2,0,6,0,0,0,0
CCCC[N+]1(C)CCOCC1.F[B-](F)(F)F,C0750_A0020,A132065,66,339.15,C9H20BF4NO,9,20,1,1,0,0,4,0,0,0,0
CCCC[N+]1(C)CCOCC1.O=S(=O)([N-]S(=O)(=O)C(F)(F)F)C(F)(F)F,C0750_A0048,A132065,35,308.15,C11H20F6N2O5S2,11,20,2,5,2,0,6,0,0,0,0
CCCC[N+]1(C)CCOCC1.F[B-](F)(F)C(F)(F)C(F)(F)C(F)(F)F,C0750_A0009,A132065,69,342.15,C12H20BF10NO,12,20,1,1,0,0,10,0,0,0,0
CCCC[N+]1(C)CCOCC1.F[B-](F)(F)C(F)(F)C(F)(F)C(F)(F)C(F)(F)F,C0750_A0021,A132065,76,349.15,C13H20BF12NO,13,20,1,1,0,0,12,0,0,0,0
COCC[N+]1(C)CCOCC1.F[B-](F)(F)F,C1051_A0020,A132065,85,358.15,C8H18BF4NO2,8,18,1,2,0,0,4,0,0,0,0
COCC[N+]1(C)CCOCC1.F[B-](F)(F)C(F)(F)F,C1051_A0008,A132065,1,274.15,C9H18BF6NO2,9,18,1,2,0,0,6,0,0,0,0
COCC[N+]1(C)CCOCC1.F[B-](F)(F)C(F)(F)C(F)(F)C(F)(F)C(F)(F)F,C1051_A0021,A132065,126,399.15,C12H18BF12NO2,12,18,1,2,0,0,12,0,0,0,0
Cn1nn[n+](N)c1N.O=[N+]([O-])[N-][N+](=O)[O-],C0961_A0063,A132065,85,358.15,C2H7N9O4,2,7,9,4,0,0,0,0,0,0,0
CC1=[NH+]N(C)NN1C.[O-][Cl+3]([O-])([O-])[O-],C0420_A0051,A132065,133,406.15,C4H11ClN4O4,4,11,4,4,0,0,0,1,0,0,0
Cc1n(C)nn[n+]1N.[I-],C0746_A0069,A132065,121,394.15,C3H8IN5,3,8,5,0,0,0,0,0,0,1,0
Cc1n(C)nn[n+]1N.[O-][Cl+3]([O-])([O-])[O-],C0746_A0051,A132065,51,324.15,C3H8ClN5O4,3,8,5,4,0,0,0,1,0,0,0
CC1=[NH+]N(N)NN1C.[I-],C0371_A0069,A132065,124,397.15,C3H10IN5,3,10,5,0,0,0,0,0,0,1,0
CC1=[NH+]N(N)NN1C.[O-][Cl+3]([O-])([O-])[O-],C0371_A0051,A132065,140,413.15,C3H10ClN5O4,3,10,5,4,0,0,0,1,0,0,0
CC1=[NH+]N(N)NN1C.O=[N+]([O-])[O-],C0371_A0090,A132065,94,367.15,C3H10N6O3,3,10,6,3,0,0,0,0,0,0,0
CCC[N+]1(C)CCOC1.O=S(=O)([N-]S(=O)(=O)C(F)(F)F)C(F)(F)F,C0991_A0048,A132065,44,317.15,C9H16F6N2O5S2,9,16,2,5,2,0,6,0,0,0,0
CCC[N+]1(C)CCOC1.F[P-](F)(F)(F)(F)F,C0991_A0011,A132065,41,314.15,C7H16F6NOP,7,16,1,1,0,1,6,0,0,0,0
CCCC[N+]1(C)CCOC1.F[B-](F)(F)F,C0543_A0020,A132065,-12,261.15,C8H18BF4NO,8,18,1,1,0,0,4,0,0,0,0
CCCC[N+]1(C)CCOC1.O=S(=O)([N-]S(=O)(=O)C(F)(F)F)C(F)(F)F,C0543_A0048,A132065,12,285.15,C10H18F6N2O5S2,10,18,2,5,2,0,6,0,0,0,0
CCCC[N+]1(C)CCOC1.F[B-](F)(F)C(F)(F)C(F)(F)F,C0543_A0043,A132065,-4,269.15,C10H18BF8NO,10,18,1,1,0,0,8,0,0,0,0
CCCC[N+]1(C)CCOC1.F[B-](F)(F)C(F)(F)C(F)(F)C(F)(F)F,C0543_A0009,A132065,53,326.15,C11H18BF10NO,11,18,1,1,0,0,10,0,0,0,0
CCCC[N+]1(C)CCOC1.F[B-](F)(F)C(F)(F)C(F)(F)C(F)(F)C(F)(F)F,C0543_A0021,A132065,54,327.15,C12H18BF12NO,12,18,1,1,0,0,12,0,0,0,0
COCC[N+]1(C)CCOC1.F[B-](F)(F)C(F)(F)C(F)(F)F,C0401_A0043,A132065,1,274.15,C9H16BF8NO2,9,16,1,2,0,0,8,0,0,0,0
COCC[N+]1(C)CCOC1.F[B-](F)(F)C(F)(F)C(F)(F)C(F)(F)F,C0401_A0009,A132065,10,283.15,C10H16BF10NO2,10,16,1,2,0,0,10,0,0,0,0
COCC[N+]1(C)CCOC1.F[B-](F)(F)C(F)(F)C(F)(F)C(F)(F)C(F)(F)F,C0401_A0021,A132065,18,291.15,C11H16BF12NO2,11,16,1,2,0,0,12,0,0,0,0
CC[N+]1(CC)CCNCC1.O=S(=O)([O-])OCC(F)(F)C(F)(F)C(F)(F)C(F)F,C0635_A0078,A132065,-7,266.15,C13H22F8N2O4S,13,22,2,4,1,0,8,0,0,0,0
FC(F)(CC[n+]1ccccn1)C(F)(F)S(F)(F)(F)(F)F.O=S(=O)([N-]S(=O)(=O)C(F)(F)F)C(F)(F)F,C0675_A0048,A132065,-14,259.15,C10H8F15N3O4S3,10,8,3,4,3,0,15,0,0,0,0
[Cl-].[NH3+]CC(=O)O,C0778_A0033,A132065,186,459.15,C2H6ClNO2,2,6,1,2,0,0,0,1,0,0,0
F[B-](F)(F)F.[NH3+]CC(=O)O,C0778_A0020,A132065,116,389.15,C2H6BF4NO2,2,6,1,2,0,0,4,0,0,0,0
O=[N+]([O-])[O-].[NH3+]CC(=O)O,C0778_A0090,A132065,111,384.15,C2H6N2O5,2,6,2,5,0,0,0,0,0,0,0
F[P-](F)(F)(F)(F)F.[NH3+]CC(=O)O,C0778_A0011,A132065,101,374.15,C2H6F6NO2P,2,6,1,2,0,1,6,0,0,0,0
CC([NH3+])C(=O)O.F[B-](F)(F)F,C0784_A0020,A132065,78,351.15,C3H8BF4NO2,3,8,1,2,0,0,4,0,0,0,0
CC([NH3+])C(=O)O.O=[N+]([O-])[O-],C0784_A0090,A132065,159,432.15,C3H8N2O5,3,8,2,5,0,0,0,0,0,0,0
CC([NH3+])C(=O)O.O=C([O-])C(F)(F)F,C0784_A0064,A132065,82,355.15,C5H8F3NO4,5,8,1,4,0,0,3,0,0,0,0
F[B-](F)(F)F.O=C(O)C1CCC[NH2+]1,C0474_A0020,A132065,76,349.15,C5H10BF4NO2,5,10,1,2,0,0,4,0,0,0,0
O=C(O)C1CCC[NH2+]1.O=C([O-])C(F)(F)F,C0474_A0064,A132065,78,351.15,C7H10F3NO4,7,10,1,4,0,0,3,0,0,0,0
CC(C)C([NH3+])C(=O)O.O=[N+]([O-])[O-],C0251_A0090,A132065,134,407.15,C5H12N2O5,5,12,2,5,0,0,0,0,0,0,0
CCC(C)C([NH3+])C(=O)O.O=[N+]([O-])[O-],C0023_A0090,A132065,105,378.15,C6H14N2O5,6,14,2,5,0,0,0,0,0,0,0
COC(=O)C[NH3+].O=[N+]([O-])[O-],C0491_A0090,A132065,44,317.15,C3H8N2O5,3,8,2,5,0,0,0,0,0,0,0
CCOC(=O)C[NH3+].O=[N+]([O-])[O-],C0914_A0090,A132065,49,322.15,C4H10N2O5,4,10,2,5,0,0,0,0,0,0,0
COC(=O)C(C)[NH3+].F[B-](F)(F)F,C0492_A0020,A132065,-18,255.15,C4H10BF4NO2,4,10,1,2,0,0,4,0,0,0,0
COC(=O)C(C)[NH3+].O=S(=O)([N-]S(=O)(=O)C(F)(F)F)C(F)(F)F,C0492_A0048,A132065,-17,256.15,C6H10F6N2O6S2,6,10,2,6,2,0,6,0,0,0,0
COC(=O)C(C)[NH3+].O=[N+]([O-])[O-],C0492_A0090,A132065,61,334.15,C4H10N2O5,4,10,2,5,0,0,0,0,0,0,0
CC(O)C(=O)[O-].COC(=O)C(C)[NH3+],C0492_A0081,A132065,38,311.15,C7H15NO5,7,15,1,5,0,0,0,0,0,0,0
COC(=O)C(C)[NH3+].N#C[S-],C0492_A0015,A132065,62,335.15,C5H10N2O2S,5,10,2,2,1,0,0,0,0,0,0
COC(=O)C([NH3+])CO.O=[N+]([O-])[O-],C0923_A0090,A132065,105,378.15,C4H10N2O6,4,10,2,6,0,0,0,0,0,0,0
CC[NH2+]C(C)C(=O)OCC.O=[N+]([O-])[O-],C0964_A0090,A132065,-17,256.15,C7H16N2O5,7,16,2,5,0,0,0,0,0,0,0
CC(O)C(=O)[O-].CC[NH2+]C(C)C(=O)OCC,C0964_A0081,A132065,-25,248.15,C10H21NO5,10,21,1,5,0,0,0,0,0,0,0
COC(=O)C1CCC[NH2+]1.O=[N+]([O-])[O-],C1001_A0090,A132065,-16,257.15,C6H12N2O5,6,12,2,5,0,0,0,0,0,0,0
COC(=O)C([NH3+])C(C)C.O=[N+]([O-])[O-],C0416_A0090,A132065,74,347.15,C6H14N2O5,6,14,2,5,0,0,0,0,0,0,0
CCOC(=O)C1CCC[NH2+]1.O=[N+]([O-])[O-],C0031_A0090,A132065,-17,256.15,C7H14N2O5,7,14,2,5,0,0,0,0,0,0,0
CCC(C)C([NH3+])C(=O)OC.O=[N+]([O-])[O-],C0101_A0090,A132065,-14,259.15,C7H16N2O5,7,16,2,5,0,0,0,0,0,0,0
CC(C)CC([NH3+])C(=O)O.O=[N+]([O-])[O-],C0508_A0090,A132065,75,348.15,C6H14N2O5,6,14,2,5,0,0,0,0,0,0,0
COC(=O)C([NH3+])Cc1ccccc1.O=[N+]([O-])[O-],C0654_A0090,A132065,92,365.15,C10H14N2O5,10,14,2,5,0,0,0,0,0,0,0
CCCn1cc(CC(NC(=O)c2ccccc2)C(=O)OC)[n+](CCC)c1.[Br-],C0980_A0004,A132065,39,312.15,C20H28BrN3O3,20,28,3,3,0,0,0,0,1,0,0
COC(=O)C(Cc1cn(C(C)C)c[n+]1C(C)C)NC(=O)c1ccccc1.[I-],C0163_A0069,A132065,55,328.15,C20H28IN3O3,20,28,3,3,0,0,0,0,0,1,0
CC(=O)C(Cc1cn(C(C)C)c[n+]1C(C)C)NC(=O)OC(C)(C)C.[I-],C0001_A0069,A132065,55,328.15,C18H32IN3O3,18,32,3,3,0,0,0,0,0,1,0
Cc1cc(C)c(-n2cc[n+](C)c2)c(C)c1.O=S(=O)([N-]S(=O)(=O)C(F)(F)F)C(F)(F)F,C1079_A0048,A132065,71,344.15,C15H17F6N3O4S2,15,17,3,4,2,0,6,0,0,0,0
CCCC[n+]1ccn(-c2c(C)cc(C)cc2C)c1.O=S(=O)([N-]S(=O)(=O)C(F)(F)F)C(F)(F)F,C0086_A0048,A132065,26,299.15,C18H23F6N3O4S2,18,23,3,4,2,0,6,0,0,0,0
CCCCCC[n+]1ccn(-c2c(C)cc(C)cc2C)c1.O=S(=O)([N-]S(=O)(=O)C(F)(F)F)C(F)(F)F,C0945_A0048,A132065,40,313.15,C20H27F6N3O4S2,20,27,3,4,2,0,6,0,0,0,0
CCCCCCCCCCC[n+]1ccn(-c2c(C)cc(C)cc2C)c1.O=S(=O)([N-]S(=O)(=O)C(F)(F)F)C(F)(F)F,C0117_A0048,A132065,32,305.15,C25H37F6N3O4S2,25,37,3,4,2,0,6,0,0,0,0
CCCC[N+]1(C)CCCC(C)C1.O=S(=O)([O-])C(F)(F)F,C0881_A0084,A132065,84,357.15,C12H24F3NO3S,12,24,1,3,1,0,3,0,0,0,0
CCCCCC[N+]1(C)CCCC(C)C1.O=S(=O)([O-])C(F)(F)F,C0429_A0084,A132065,82,355.15,C14H28F3NO3S,14,28,1,3,1,0,3,0,0,0,0
CCCC[N+]1(C)CCCC(C)C1.O=C([O-])C(F)(F)F,C0881_A0064,A132065,58,331.15,C13H24F3NO2,13,24,1,2,0,0,3,0,0,0,0
CCCCCC[N+]1(C)CCCC(C)C1.O=C([O-])C(F)(F)F,C0429_A0064,A132065,41,314.15,C15H28F3NO2,15,28,1,2,0,0,3,0,0,0,0
CCCC[N+]1(C)CCCC(C)C1.[I-],C0881_A0069,A132065,144,417.15,C11H24IN,11,24,1,0,0,0,0,0,0,1,0
CCCCCC[N+]1(C)CCCC(C)C1.[I-],C0429_A0069,A132065,123,396.15,C13H28IN,13,28,1,0,0,0,0,0,0,1,0
CCC[n+]1ccccc1.O=S(=O)([N-]S(=O)(=O)C(F)(F)F)C(F)(F)F,C0203_A0048,A132065,44,317.15,C10H12F6N2O4S2,10,12,2,4,2,0,6,0,0,0,0
CCCCCC[n+]1ccccc1.O=S(=O)([N-]S(=O)(=O)C(F)(F)F)C(F)(F)F,C0710_A0048,A132065,3,276.15,C13H18F6N2O4S2,13,18,2,4,2,0,6,0,0,0,0
CCCCc1c[n+](-c2ccccc2)nn1C.Cc1ccc(S(=O)(=O)[O-])cc1,C1014_A0030,A132065,146,419.15,C20H25N3O3S,20,25,3,3,1,0,0,0,0,0,0
CCCCc1c[n+](-c2ccccc2)nn1C.O=S(=O)([O-])C(F)(F)F,C1014_A0084,A132065,102,375.15,C14H18F3N3O3S,14,18,3,3,1,0,3,0,0,0,0
CCCCc1c[n+](C)nn1C.Cc1ccc(S(=O)(=O)[O-])cc1,C0905_A0030,A132065,106,379.15,C15H23N3O3S,15,23,3,3,1,0,0,0,0,0,0
Cc1ccc(S(=O)(=O)[O-])cc1.Cn1cc[n+](C)n1,C0773_A0030,A132065,99,372.15,C11H15N3O3S,11,15,3,3,1,0,0,0,0,0,0
Cc1ccc(S(=O)(=O)[O-])cc1.Cn1cc[n+](C)c1,C0958_A0030,A132065,95,368.15,C12H16N2O3S,12,16,2,3,1,0,0,0,0,0,0
Cn1cc[n+](C)c1.O=S(=O)([O-])C(F)(F)F,C0958_A0084,A132065,37,310.15,C6H9F3N2O3S,6,9,2,3,1,0,3,0,0,0,0
CCCCCC[P+](CCCC)(CCCC)CCCC.F[P-](F)(F)(F)(F)F,C0182_A0011,A132065,141,414.15,C18H40F6P2,18,40,0,0,0,2,6,0,0,0,0
CCCCCC[N+](CCCC)(CCCC)CCCC.F[P-](F)(F)(F)(F)F,C0319_A0011,A132065,167,440.15,C18H40F6NP,18,40,1,0,0,1,6,0,0,0,0
CCCCCC[N+](CCCC)(CCCC)CCCC.O=S(=O)([N-]S(=O)(=O)C(F)(F)F)C(F)(F)F,C0319_A0048,A132065,24,297.15,C20H40F6N2O4S2,20,40,2,4,2,0,6,0,0,0,0
COS(=O)(=O)[O-].C[N+]1(C)CCCC1,C0411_A0044,A132065,95,368.15,C7H17NO4S,7,17,1,4,1,0,0,0,0,0,0
COS(=O)(=O)[O-].C[N+]1(C)CCCCC1,C0103_A0044,A132065,99,372.15,C8H19NO4S,8,19,1,4,1,0,0,0,0,0,0
CCOS(=O)(=O)[O-].CC[N+]1(C)CCCCC1,C0871_A0083,A132065,-80,193.15,C10H23NO4S,10,23,1,4,1,0,0,0,0,0,0
COS(=O)(=O)[O-].C[N+]1(C)CCOCC1,C0963_A0044,A132065,113,386.15,C7H17NO5S,7,17,1,5,1,0,0,0,0,0,0
CC[N+]1(C)CCOCC1.COS(=O)(=O)[O-],C0561_A0044,A132065,45,318.15,C8H19NO5S,8,19,1,5,1,0,0,0,0,0,0
CCOS(=O)(=O)[O-].CC[N+]1(C)CCOCC1,C0561_A0083,A132065,-68,205.15,C9H21NO5S,9,21,1,5,1,0,0,0,0,0,0
CC[N+](CC)(CCOC)CCOC.O=S(=O)(F)[N-]S(=O)(=O)F,C1053_A0027,A132065,15,288.15,C10H24F2N2O6S2,10,24,2,6,2,0,2,0,0,0,0
COCC[N+](CCOC)(CCOC)CCOC.O=S(=O)(F)[N-]S(=O)(=O)F,C0533_A0027,A132065,21,294.15,C12H28F2N2O8S2,12,28,2,8,2,0,2,0,0,0,0
CC[N+](CC)(CCOC)CCOC.O=S(=O)([N-]S(=O)(=O)C(F)(F)F)C(F)(F)F,C1053_A0048,A132065,7,280.15,C12H24F6N2O6S2,12,24,2,6,2,0,6,0,0,0,0
COCC[N+](CCOC)(CCOC)CCOC.O=S(=O)([N-]S(=O)(=O)C(F)(F)F)C(F)(F)F,C0533_A0048,A132065,26,299.15,C14H28F6N2O8S2,14,28,2,8,2,0,6,0,0,0,0
CCC[N+](CCC)(CCC)CC(=O)OCC.O=S(=O)([N-]S(=O)(=O)C(F)(F)F)C(F)(F)F,C0863_A0048,A132065,68,341.15,C15H28F6N2O6S2,15,28,2,6,2,0,6,0,0,0,0
CCCC[N+](CCCC)(CCCC)CC(=O)OCC.F[B-](F)(F)F,C0790_A0020,A132065,54,327.15,C16H34BF4NO2,16,34,1,2,0,0,4,0,0,0,0
CCOCC[N+](CCOC)=C(N(C)C)N(C)C.O=S(=O)([N-]S(=O)(=O)C(F)(F)F)C(F)(F)F,C0664_A0048,A132065,8,281.15,C14H28F6N4O6S2,14,28,4,6,2,0,6,0,0,0,0
CCCC[P+](CC)(CC)CC.O=S(=O)(F)[N-]S(=O)(=O)F,C0519_A0027,A132065,-16,257.15,C10H24F2NO4PS2,10,24,1,4,2,1,2,0,0,0,0
CCCCC[P+](CC)(CC)CC.O=S(=O)(F)[N-]S(=O)(=O)F,C0161_A0027,A132065,-35,238.15,C11H26F2NO4PS2,11,26,1,4,2,1,2,0,0,0,0
CC[P+](CC)(CC)COC.O=S(=O)(F)[N-]S(=O)(=O)F,C1114_A0027,A132065,-14,259.15,C8H20F2NO5PS2,8,20,1,5,2,1,2,0,0,0,0
CCOC[P+](CC)(CC)CC.O=S(=O)(F)[N-]S(=O)(=O)F,C0915_A0027,A132065,-18,255.15,C9H22F2NO5PS2,9,22,1,5,2,1,2,0,0,0,0
C=CC[N+](C)(C)CC(=O)OCC.O=S(=O)([N-]S(=O)(=O)C(F)(F)F)C(F)(F)F,C0237_A0048,A132065,26,299.15,C11H18F6N2O6S2,11,18,2,6,2,0,6,0,0,0,0
CCCCC[N+](C)(C)CC(=O)OCC.O=S(=O)([N-]S(=O)(=O)C(F)(F)F)C(F)(F)F,C0121_A0048,A132065,-17,256.15,C13H24F6N2O6S2,13,24,2,6,2,0,6,0,0,0,0
C=CC[N+](CC)(CC)CC(=O)OCC.O=S(=O)([N-]S(=O)(=O)C(F)(F)F)C(F)(F)F,C0669_A0048,A132065,-28,245.15,C13H22F6N2O6S2,13,22,2,6,2,0,6,0,0,0,0
CCOC(=O)C[N+](C)(C)C.COS(=O)(=O)[O-],C0055_A0044,A132065,38,311.15,C8H19NO6S,8,19,1,6,1,0,0,0,0,0,0
CCOC(=O)C[N+](C)(C)CC.CCOS(=O)(=O)[O-],C0149_A0083,A132065,21,294.15,C10H23NO6S,10,23,1,6,1,0,0,0,0,0,0
CCOC(=O)C[N+](C)(CC)CC.COS(=O)(=O)[O-],C0865_A0044,A132065,-31,242.15,C10H23NO6S,10,23,1,6,1,0,0,0,0,0,0
CCOC(=O)C[N+](CC)(CC)CC.CCOS(=O)(=O)[O-],C1135_A0083,A132065,-30,243.15,C12H27NO6S,12,27,1,6,1,0,0,0,0,0,0
CCCCOS(=O)(=O)[O-].CCCC[N+](CC)(CC)CC(=O)OCC,C1013_A0050,A132065,-33,240.15,C16H35NO6S,16,35,1,6,1,0,0,0,0,0,0
CCC[P+](C)(C)C.O=S(=O)(F)[N-]S(=O)(=O)F,C0493_A0027,A132065,0,273.15,C6H16F2NO4PS2,6,16,1,4,2,1,2,0,0,0,0
CCC[P+](C)(C)C.O=S(=O)([N-]S(=O)(=O)C(F)(F)F)C(F)(F)F,C0493_A0048,A132065,40,313.15,C8H16F6NO4PS2,8,16,1,4,2,1,6,0,0,0,0
COC[P+](C)(C)C.O=S(=O)(F)[N-]S(=O)(=O)F,C0433_A0027,A132065,-6,267.15,C5H14F2NO5PS2,5,14,1,5,2,1,2,0,0,0,0
COC[P+](C)(C)C.O=S(=O)([N-]S(=O)(=O)C(F)(F)F)C(F)(F)F,C0433_A0048,A132065,13,286.15,C7H14F6NO5PS2,7,14,1,5,2,1,6,0,0,0,0
C=CC[P+](C)(C)C.O=S(=O)(F)[N-]S(=O)(=O)F,C0608_A0027,A132065,-5,268.15,C6H14F2NO4PS2,6,14,1,4,2,1,2,0,0,0,0
CCCC[n+]1ccn(C)c1.F[B-](F)(F)F,C0505_A0020,A132065,-82,191.15,C8H15BF4N2,8,15,2,0,0,0,4,0,0,0,0
CCCCCC[n+]1ccn(C)c1.F[B-](F)(F)F,C0190_A0020,A132065,-82,191.15,C10H19BF4N2,10,19,2,0,0,0,4,0,0,0,0
CCCCCCCC[n+]1ccn(C)c1.F[B-](F)(F)F,C0290_A0020,A132065,79,352.15,C12H23BF4N2,12,23,2,0,0,0,4,0,0,0,0
CCCC[n+]1ccn(C)c1.F[P-](F)(F)(F)(F)F,C0505_A0011,A132065,10,283.15,C8H15F6N2P,8,15,2,0,0,1,6,0,0,0,0
CCCCCC[n+]1ccn(C)c1.F[P-](F)(F)(F)(F)F,C0190_A0011,A132065,-61,212.15,C10H19F6N2P,10,19,2,0,0,1,6,0,0,0,0
CCCC[n+]1ccn(C)c1.[Cl-],C0505_A0033,A132065,65,338.15,C8H15ClN2,8,15,2,0,0,0,0,1,0,0,0
COS(=O)(=O)[O-].Cn1cc[n+](C)c1,C0958_A0044,A132065,35,308.15,C6H12N2O4S,6,12,2,4,1,0,0,0,0,0,0
C=C(C)c1n(C)cc[n+]1CC(=O)c1ccccc1.[Br-],C0377_A0004,A132065,182,455.15,C15H17BrN2O,15,17,2,1,0,0,0,0,1,0,0
C=C(c1n(C)cc[n+]1CC(=O)c1ccccc1)C(C)(C)C.[Br-],C0755_A0004,A132065,200,473.15,C18H23BrN2O,18,23,2,1,0,0,0,0,1,0,0
C=C(c1ccccc1)c1n(C)cc[n+]1CC(=O)c1ccccc1.[Br-],C1101_A0004,A132065,185,458.15,C20H19BrN2O,20,19,2,1,0,0,0,0,1,0,0
CCCn1cc[n+](CCC)c1CC(C)C.[Br-],C0685_A0004,A132065,163,436.15,C13H25BrN2,13,25,2,0,0,0,0,0,1,0,0
C=CCn1cc[n+](CCCCCCCCCC)c1C.[Br-],C0766_A0004,A132065,71,344.15,C17H31BrN2,17,31,2,0,0,0,0,0,1,0,0
C=CC[n+]1ccn(C)c1CCCCCCCCC.[Br-],C0486_A0004,A132065,98,371.15,C16H29BrN2,16,29,2,0,0,0,0,0,1,0,0
CCCCCCCc1n(C)cc[n+]1Cc1ccccc1.[Br-],C0633_A0004,A132065,187,460.15,C18H27BrN2,18,27,2,0,0,0,0,0,1,0,0
CCn1c[n+](CC)c(-c2ccccc2)c1-c1ccccc1.[Br-],C0803_A0004,A132065,154,427.15,C19H21BrN2,19,21,2,0,0,0,0,0,1,0,0
CCCCCCCCCc1n(C)cc[n+]1Cc1ccccc1.[Br-],C0713_A0004,A132065,194,467.15,C20H31BrN2,20,31,2,0,0,0,0,0,1,0,0
CCCCCCCCCCCc1n(Cc2ccccc2)cc[n+]1C.[Br-],C0576_A0004,A132065,187,460.15,C22H35BrN2,22,35,2,0,0,0,0,0,1,0,0
CCCCCCCCCCCc1n(Cc2ccccc2)cc[n+]1CCCCC.[Br-],C0875_A0004,A132065,117,390.15,C26H43BrN2,26,43,2,0,0,0,0,0,1,0,0
[Br-].c1ccc(Cn2c[n+](Cc3ccccc3)c(-c3ccccc3)c2-c2ccccc2)cc1,C0998_A0004,A132065,212,485.15,C29H25BrN2,29,25,2,0,0,0,0,0,1,0,0
Cn1cc[n+](C)c1SC#N.[Br-],C0075_A0004,A132065,221,494.15,C6H8BrN3S,6,8,3,0,1,0,0,0,1,0,0