IL_SMILES,NAME,ARTICLEID,IL-Tm (deg-C),IL-Tm (K),MolecularFormula,C,H,N,O,S,P,F,Cl,Br,I,Si
CCCCCCSC(N)=[NH2+].[Br-],C1177_A0004,A132065,86,359.15,C7H17BrN2S,7,17,2,0,1,0,0,0,1,0,0
CCCCCCSC(NC)=[NH+]C.[Br-],C1178_A0004,A132065,95,368.15,C9H21BrN2S,9,21,2,0,1,0,0,0,1,0,0
CCCCCCSC(N(C)C)=[N+](C)C.[Br-],C1179_A0004,A132065,73,346.15,C11H25BrN2S,11,25,2,0,1,0,0,0,1,0,0
CCCCCCSC(NCC)=[NH+]CC.[Br-],C1180_A0004,A132065,49,322.15,C11H25BrN2S,11,25,2,0,1,0,0,0,1,0,0
CCCCCCCCSC(N)=[NH2+].[Br-],C1181_A0004,A132065,96,369.15,C9H21BrN2S,9,21,2,0,1,0,0,0,1,0,0
CCCCCCCCSC(NC)=[NH+]C.[Br-],C1182_A0004,A132065,54,327.15,C11H25BrN2S,11,25,2,0,1,0,0,0,1,0,0
CCCCCCCC[P+](C)(CCCCCCCC)CCCCCCCC.[Cl-],C0741_A0033,A132065,89,362.15,C25H54ClP,25,54,0,0,0,1,0,1,0,0,0
CCCCCCCC[P+](CC)(CCCCCCCC)CCCCCCCC.[Cl-],C0708_A0033,A132065,66,339.15,C26H56ClP,26,56,0,0,0,1,0,1,0,0,0
CCCCCCCC[P+](CCC)(CCCCCCCC)CCCCCCCC.[Cl-],C0786_A0033,A132065,29,302.15,C27H58ClP,27,58,0,0,0,1,0,1,0,0,0
CCCCCCCCCCCC[P+](CCCCCCCC)(CCCCCCCC)CCCCCCCC.[Cl-],C1035_A0033,A132065,-30,243.15,C36H76ClP,36,76,0,0,0,1,0,1,0,0,0
CCCCCCCCCCCCCC[P+](CCCCCCCC)(CCCCCCCC)CCCCCCCC.[Cl-],C0559_A0033,A132065,-20,253.15,C38H80ClP,38,80,0,0,0,1,0,1,0,0,0
Cc1n(CC[Si](C)(C)C)cc[n+]1C.O=S(=O)([N-]S(=O)(=O)C(F)(F)F)C(F)(F)F,C1183_A0048,A132065,42,315.15,C12H21F6N3O4S2Si,12,21,3,4,2,0,6,0,0,0,1
CCCC[P+](C)(CCCC)CCCC.[Cl-],C1196_A0033,A132065,20,293.15,C13H30ClP,13,30,0,0,0,1,0,1,0,0,0
CCCC[P+](CC)(CCCC)CCCC.[Cl-],C1197_A0033,A132065,70,343.15,C14H32ClP,14,32,0,0,0,1,0,1,0,0,0
CCCC[P+](CCC)(CCCC)CCCC.[Cl-],C1198_A0033,A132065,78,351.15,C15H34ClP,15,34,0,0,0,1,0,1,0,0,0
CCCC[P+](CCCC)(CCCC)CCCC.[Cl-],C1199_A0033,A132065,71,344.15,C16H36ClP,16,36,0,0,0,1,0,1,0,0,0
CCCCC[P+](CCCC)(CCCC)CCCC.[Cl-],C1200_A0033,A132065,48,321.15,C17H38ClP,17,38,0,0,0,1,0,1,0,0,0
CCCCCC[P+](CCCC)(CCCC)CCCC.[Cl-],C0182_A0033,A132065,24,297.15,C18H40ClP,18,40,0,0,0,1,0,1,0,0,0
CCCCCCC[P+](CCCC)(CCCC)CCCC.[Cl-],C1201_A0033,A132065,53,326.15,C19H42ClP,19,42,0,0,0,1,0,1,0,0,0
CCCCCCCC[P+](CCCC)(CCCC)CCCC.[Cl-],C1202_A0033,A132065,19,292.15,C20H44ClP,20,44,0,0,0,1,0,1,0,0,0
CCCCCCCCCCCC[P+](CCCC)(CCCC)CCCC.[Cl-],C1203_A0033,A132065,23,296.15,C24H52ClP,24,52,0,0,0,1,0,1,0,0,0
CCCCCCCCCCCCCC[P+](CCCC)(CCCC)CCCC.[Cl-],C1204_A0033,A132065,39,312.15,C26H56ClP,26,56,0,0,0,1,0,1,0,0,0
CC[n+]1ccn(C)c1.F[B-](F)(F)F,C0460_A0020,A132065,15,288.15,C6H11BF4N2,6,11,2,0,0,0,4,0,0,0,0
CC[n+]1ccn(C)c1.O=P([O-])(F)F,C0460_A0097,A132065,7,280.15,C6H11F2N2O2P,6,11,2,2,0,1,2,0,0,0,0
CC[n+]1ccn(C)c1.O=S(=O)([O-])C(F)(F)F,C0460_A0084,A132065,-10,263.15,C7H11F3N2O3S,7,11,2,3,1,0,3,0,0,0,0
Cc1cc2cccc[n+]2cc1C.[Br-],C1184_A0004,A132065,237,510.15,C11H12BrN,11,12,1,0,0,0,0,0,1,0,0
Cc1cc2cccc[n+]2cc1C.O=S(=O)([N-]S(=O)(=O)C(F)(F)F)C(F)(F)F,C1184_A0048,A132065,61,334.15,C13H12F6N2O4S2,13,12,2,4,2,0,6,0,0,0,0
Cc1cc2cccc[n+]2cc1C.F[B-](F)(F)F,C1184_A0020,A132065,186,459.15,C11H12BF4N,11,12,1,0,0,0,4,0,0,0,0
Cc1cc2cccc[n+]2cc1C.N#C[N-]C#N,C1184_A0056,A132065,138,411.15,C13H12N4,13,12,4,0,0,0,0,0,0,0,0
CCc1cc2cccc[n+]2cc1CC.[Br-],C1185_A0004,A132065,222,495.15,C13H16BrN,13,16,1,0,0,0,0,0,1,0,0
CCc1cc2cccc[n+]2cc1CC.O=S(=O)([N-]S(=O)(=O)C(F)(F)F)C(F)(F)F,C1185_A0048,A132065,50,323.15,C15H16F6N2O4S2,15,16,2,4,2,0,6,0,0,0,0
CCc1cc2cccc[n+]2cc1CC.F[B-](F)(F)F,C1185_A0020,A132065,116,389.15,C13H16BF4N,13,16,1,0,0,0,4,0,0,0,0
CCc1cc2cccc[n+]2cc1CC.N#C[N-]C#N,C1185_A0056,A132065,68,341.15,C15H16N4,15,16,4,0,0,0,0,0,0,0,0
CC[N+](C)(CC)CCOC.F[B-](F)(F)F,C0406_A0020,A132065,8,281.15,C8H20BF4NO,8,20,1,1,0,0,4,0,0,0,0
COCC[N+](C)(C)CCOC.F[B-](F)(F)F,C1193_A0020,A132065,36,309.15,C8H20BF4NO2,8,20,1,2,0,0,4,0,0,0,0
CCOCC[N+](C)(C)CCOC.F[B-](F)(F)F,C1194_A0020,A132065,6,279.15,C9H22BF4NO2,9,22,1,2,0,0,4,0,0,0,0
CC(=O)[O-].CC[N+](C)(CC)CCOC,C0406_A0087,A132065,36,309.15,C10H23NO3,10,23,1,3,0,0,0,0,0,0,0
CC(=O)[O-].COCC[N+](C)(C)CCOC,C1193_A0087,A132065,40,313.15,C10H23NO4,10,23,1,4,0,0,0,0,0,0,0
CC(=O)[O-].CCOCC[N+](C)(C)CCOC,C1194_A0087,A132065,31,304.15,C11H25NO4,11,25,1,4,0,0,0,0,0,0,0
CC(=O)[O-].CCOCC[N+](C)(C)CCOCC,C1195_A0087,A132065,34,307.15,C12H27NO4,12,27,1,4,0,0,0,0,0,0,0
CCCCCCCC[N+](C)(C)C1CCCCC1.[Br-],C1190_A0004,A132065,181,454.15,C16H34BrN,16,34,1,0,0,0,0,0,1,0,0
C[NH+](C)CCCCCCC1CCCCC1.O=C[O-],C1191_A0024,A132065,23,296.15,C15H31NO2,15,31,1,2,0,0,0,0,0,0,0
CCCCCCCC[N+](C)(C)C1CCCCC1.O=C[O-],C1190_A0024,A132065,56,329.15,C17H35NO2,17,35,1,2,0,0,0,0,0,0,0
CC(=O)[O-].CCCC[N+](C)(C)C1CCCCC1,C1192_A0087,A132065,50,323.15,C14H29NO2,14,29,1,2,0,0,0,0,0,0,0
CCCCC(CC)C[N+](C)(C)CC(CC)CCCC.[Cl-],C1168_A0033,A132065,84,357.15,C18H40ClN,18,40,1,0,0,0,0,1,0,0,0
CCCCC(CC)C[N+](C)(C)CC(CC)CCCC.[Br-],C1168_A0004,A132065,90,363.15,C18H40BrN,18,40,1,0,0,0,0,0,1,0,0
CCCCC(CC)C[N+](C)(C)CC(CC)CCCC.[I-],C1168_A0069,A132065,73,346.15,C18H40IN,18,40,1,0,0,0,0,0,0,1,0
CCCCC(CC)C[N+](C)(C)CC(CC)CCCC.O=[N+]([O-])[O-],C1168_A0090,A132065,80,353.15,C18H40N2O3,18,40,2,3,0,0,0,0,0,0,0
CCCCC(CC)C[N+](C)(C)CC(CC)CCCC.Cc1ccc(S(=O)(=O)[O-])cc1,C1168_A0030,A132065,78,351.15,C25H47NO3S,25,47,1,3,1,0,0,0,0,0,0
CCCCC(CC)C[N+](C)(C)CC(CC)CCCC.O=C([O-])c1ccncc1,C1168_A0094,A132065,266,539.15,C24H44N2O2,24,44,2,2,0,0,0,0,0,0,0
CCCCC(CC)C[N+](C)(C)CC(CC)CCCC.O=C([O-])c1cccnc1,C1168_A0095,A132065,224,497.15,C24H44N2O2,24,44,2,2,0,0,0,0,0,0,0
C[N+](C)(C)CC(=O)O.O=S(=O)([N-]S(=O)(=O)C(F)(F)F)C(F)(F)F,C1186_A0048,A132065,54,327.15,C7H12F6N2O6S2,7,12,2,6,2,0,6,0,0,0,0
C[n+]1ccn(CCC(F)(F)C(F)(F)C(F)(F)C(F)(F)C(F)(F)C(F)(F)F)c1.F[P-](F)(F)(F)(F)F,C1188_A0011,A132065,66,339.15,C12H10F19N2P,12,10,2,0,0,1,19,0,0,0,0
CCCC[n+]1ccn(CCC(F)(F)C(F)(F)C(F)(F)C(F)(F)C(F)(F)C(F)(F)F)c1.F[P-](F)(F)(F)(F)F,C1189_A0011,A132065,89,362.15,C15H16F19N2P,15,16,2,0,0,1,19,0,0,0,0
CCCC[N+](CCCC)(CCCC)CCCC.O=S(=O)([O-])C(F)(F)C(F)(F)C(F)(F)C(F)(F)C(F)(F)C(F)(F)C(F)(F)C(F)(F)F,C0297_A0096,A132065,-18,255.15,C24H36F17NO3S,24,36,1,3,1,0,17,0,0,0,0
CCCC[N+](CCCC)(CCCC)CCCC.O=S(=O)([O-])C(F)(F)C(F)(F)C(F)(F)C(F)(F)F,C0297_A0079,A132065,54,327.15,C20H36F9NO3S,20,36,1,3,1,0,9,0,0,0,0
CC[n+]1cccc(C)c1.O=S(=O)([O-])C(F)(F)C(F)(F)C(F)(F)C(F)(F)C(F)(F)C(F)(F)C(F)(F)C(F)(F)F,C1187_A0096,A132065,5,278.15,C16H12F17NO3S,16,12,1,3,1,0,17,0,0,0,0
CCCCCC[n+]1ccn(C)c1.O=S(=O)([O-])C(F)(F)C(F)(F)C(F)(F)C(F)(F)C(F)(F)C(F)(F)C(F)(F)C(F)(F)F,C0190_A0096,A132065,24,297.15,C18H19F17N2O3S,18,19,2,3,1,0,17,0,0,0,0
CCCCCCCC[n+]1ccn(C)c1.O=S(=O)([O-])C(F)(F)C(F)(F)C(F)(F)C(F)(F)C(F)(F)C(F)(F)C(F)(F)C(F)(F)F,C0290_A0096,A132065,35,308.15,C20H23F17N2O3S,20,23,2,3,1,0,17,0,0,0,0
C[N+]1(CCO)CCCC1.[Cl-],C1205_A0033,A132065,33,306.15,C7H16ClNO,7,16,1,1,0,0,0,1,0,0,0
C[N+]1(CCCO)CCCC1.[Cl-],C1206_A0033,A132065,41,314.15,C8H18ClNO,8,18,1,1,0,0,0,1,0,0,0
C[N+]1(CCO)CCCCC1.[Cl-],C1207_A0033,A132065,40,313.15,C8H18ClNO,8,18,1,1,0,0,0,1,0,0,0
COCC[N+]1(C)CCCCC1.[Cl-],C0728_A0033,A132065,58,331.15,C9H20ClNO,9,20,1,1,0,0,0,1,0,0,0
CC[N+]1(CCO)CCCCC1.[Cl-],C1208_A0033,A132065,88,361.15,C9H20ClNO,9,20,1,1,0,0,0,1,0,0,0
C[N+]1(CCO)CCCC1.O=S(=O)([N-]S(=O)(=O)C(F)(F)F)C(F)(F)F,C1205_A0048,A132065,-25,248.15,C9H16F6N2O5S2,9,16,2,5,2,0,6,0,0,0,0
C[N+]1(CCCO)CCCC1.O=S(=O)([N-]S(=O)(=O)C(F)(F)F)C(F)(F)F,C1206_A0048,A132065,12,285.15,C10H18F6N2O5S2,10,18,2,5,2,0,6,0,0,0,0
C[N+]1(CCO)CCCCC1.O=S(=O)([N-]S(=O)(=O)C(F)(F)F)C(F)(F)F,C1207_A0048,A132065,-23,250.15,C10H18F6N2O5S2,10,18,2,5,2,0,6,0,0,0,0
CC[N+]1(CCO)CCCCC1.O=S(=O)([N-]S(=O)(=O)C(F)(F)F)C(F)(F)F,C1208_A0048,A132065,-20,253.15,C11H20F6N2O5S2,11,20,2,5,2,0,6,0,0,0,0
CCCCCCCCCCCCCCCCCC[P+](CCCC)(CCCC)CCCC.[c-]1c[nH]nn1,C1209_A0098,A132065,24,297.15,C32H66N3P,32,66,3,0,0,1,0,0,0,0,0
CCCC[P+](CCCC)(CCCC)COC.[c-]1c[nH]nn1,C1216_A0098,A132065,7,280.15,C16H34N3OP,16,34,3,1,0,1,0,0,0,0,0
CCCC[P+](CC)(CC)CC.Cc1ncc([N+](=O)[O-])[n-]1,C0519_A0100,A132065,17,290.15,C14H28N3O2P,14,28,3,2,0,1,0,0,0,0,0
CCCC[P+](CC)(CC)CC.O=[N+]([O-])c1cn[n-]c1,C0519_A0099,A132065,44,317.15,C13H26N3O2P,13,26,3,2,0,1,0,0,0,0,0
CCCCCCC[P+](CC)(CC)CC.O=[N+]([O-])c1cn[n-]c1,C1211_A0099,A132065,16,289.15,C16H32N3O2P,16,32,3,2,0,1,0,0,0,0,0
CCCCCCCC[P+](CC)(CC)CC.O=[N+]([O-])c1cn[n-]c1,C1210_A0099,A132065,5,278.15,C17H34N3O2P,17,34,3,2,0,1,0,0,0,0,0
CCCCCCCCC[P+](CC)(CC)CC.O=[N+]([O-])c1cn[n-]c1,C1212_A0099,A132065,16,289.15,C18H36N3O2P,18,36,3,2,0,1,0,0,0,0,0
CCCCCCCCCC[P+](CC)(CC)CC.O=[N+]([O-])c1cn[n-]c1,C1213_A0099,A132065,11,284.15,C19H38N3O2P,19,38,3,2,0,1,0,0,0,0,0
CCCCCCCC[P+](CC)(CC)CC.O=[N+]([O-])c1c[n-]cn1,C1210_A0102,A132065,-28,245.15,C17H34N3O2P,17,34,3,2,0,1,0,0,0,0,0
CCCCCC[N+](CC)(CC)CC.[c-]1c[nH]nn1,C0352_A0098,A132065,60,333.15,C14H30N4,14,30,4,0,0,0,0,0,0,0,0
CC[P+](CC)(CC)COCCOC.[c-]1c[nH]nn1,C1215_A0098,A132065,29,302.15,C12H26N3O2P,12,26,3,2,0,1,0,0,0,0,0
CC[P+](CC)(CC)COCCOC.O=[N+]([O-])c1cn[n-]c1,C1215_A0099,A132065,-15,258.15,C13H26N3O4P,13,26,3,4,0,1,0,0,0,0,0
CC[P+](CC)(CC)C1CCCC1.O=[N+]([O-])c1cn[n-]c1,C1219_A0099,A132065,51,324.15,C14H26N3O2P,14,26,3,2,0,1,0,0,0,0,0
C=CCC[P+](CC)(CC)CC.O=[N+]([O-])c1cn[n-]c1,C1220_A0099,A132065,39,312.15,C13H24N3O2P,13,24,3,2,0,1,0,0,0,0,0
C=CCC[P+](CC)(CC)CC.O=S(=O)([N-]S(=O)(=O)C(F)(F)F)C(F)(F)F,C1220_A0048,A132065,49,322.15,C12H22F6NO4PS2,12,22,1,4,2,1,6,0,0,0,0
CCCC[S+]1CCCCC1.O=S(=O)([N-]S(=O)(=O)C(F)(F)F)C(F)(F)F,C1214_A0048,A132065,-10,263.15,C11H19F6NO4S3,11,19,1,4,3,0,6,0,0,0,0
CCCCCC[n+]1ccn(C)c1.O=[N+]([O-])c1cn[n-]c1,C0190_A0099,A132065,33,306.15,C13H21N5O2,13,21,5,2,0,0,0,0,0,0,0
CCCCCC[n+]1ccn(C)c1.[c-]1nc[nH]n1,C0190_A0101,A132065,34,307.15,C12H21N5,12,21,5,0,0,0,0,0,0,0,0
Cc1n(C)cc[n+]1C1CCCC1.O=[N+]([O-])c1cn[n-]c1,C1218_A0099,A132065,92,365.15,C13H19N5O2,13,19,5,2,0,0,0,0,0,0,0
COCCOC[n+]1ccn(C)c1C.[c-]1c[nH]nn1,C1217_A0098,A132065,58,331.15,C11H19N5O2,11,19,5,2,0,0,0,0,0,0,0
CC[N+]1=C2CCCCCN2CCC1.[Br-],C1223_A0004,A132065,105,378.15,C11H21BrN2,11,21,2,0,0,0,0,0,1,0,0
CCCC[N+]1=C2CCCCCN2CCC1.[Br-],C1224_A0004,A132065,82,355.15,C13H25BrN2,13,25,2,0,0,0,0,0,1,0,0
CCCCCC[N+]1=C2CCCCCN2CCC1.[Cl-],C1221_A0033,A132065,44,317.15,C15H29ClN2,15,29,2,0,0,0,0,1,0,0,0
CCCCCCCC[N+]1=C2CCCCCN2CCC1.[Cl-],C1222_A0033,A132065,30,303.15,C17H33ClN2,17,33,2,0,0,0,0,1,0,0,0
CC[N+]1=C2CCCCCN2CCC1.N#C[S-],C1223_A0015,A132065,40,313.15,C12H21N3S,12,21,3,0,1,0,0,0,0,0,0
CCCC[N+]1=C2CCCCCN2CCC1.N#C[S-],C1224_A0015,A132065,50,323.15,C14H25N3S,14,25,3,0,1,0,0,0,0,0,0
CCCCCCCCCCCCCC[N+]1=C2CCCCCN2CCC1.N#C[S-],C1225_A0015,A132065,48,321.15,C24H45N3S,24,45,3,0,1,0,0,0,0,0,0
CC[N+](CC)(CC)CC.F[B-](F)(F)F,C0687_A0020,A132065,71,344.15,C8H20BF4N,8,20,1,0,0,0,4,0,0,0,0
CC[N+](CC)(CC)CC.F[P-](F)(F)(F)(F)F,C0687_A0011,A132065,77,350.15,C8H20F6NP,8,20,1,0,0,1,6,0,0,0,0
CCCC[N+](CC)(CC)CC.F[B-](F)(F)F,C0756_A0020,A132065,162,435.15,C10H24BF4N,10,24,1,0,0,0,4,0,0,0,0
CCCC[N+](CC)(CC)CC.F[P-](F)(F)(F)(F)F,C0756_A0011,A132065,179,452.15,C10H24F6NP,10,24,1,0,0,1,6,0,0,0,0
CCCCCC[N+](CC)(CC)CC.F[B-](F)(F)F,C0352_A0020,A132065,88,361.15,C12H28BF4N,12,28,1,0,0,0,4,0,0,0,0
CCCCCC[N+](CC)(CC)CC.F[P-](F)(F)(F)(F)F,C0352_A0011,A132065,162,435.15,C12H28F6NP,12,28,1,0,0,1,6,0,0,0,0
CCCCCCCC[N+](CC)(CC)CC.F[B-](F)(F)F,C1226_A0020,A132065,101,374.15,C14H32BF4N,14,32,1,0,0,0,4,0,0,0,0
CCCCCCCC[N+](CC)(CC)CC.F[P-](F)(F)(F)(F)F,C1226_A0011,A132065,88,361.15,C14H32F6NP,14,32,1,0,0,1,6,0,0,0,0
C[n+]1ccc(-c2ccncc2)cc1.[I-],C1227_A0069,A132065,240,513.15,C11H11IN2,11,11,2,0,0,0,0,0,0,1,0
C[n+]1ccc(-c2ccncc2)cc1.O=S(=O)([N-]S(=O)(=O)C(F)(F)F)C(F)(F)F,C1227_A0048,A132065,70,343.15,C13H11F6N3O4S2,13,11,3,4,2,0,6,0,0,0,0
CCCCCC[n+]1ccc(-c2ccncc2)cc1.[I-],C1228_A0069,A132065,190,463.15,C16H21IN2,16,21,2,0,0,0,0,0,0,1,0
CCCCCCCCCC[n+]1ccc(-c2ccncc2)cc1.[I-],C1229_A0069,A132065,124,397.15,C20H29IN2,20,29,2,0,0,0,0,0,0,1,0
CCC(=O)C[n+]1ccccc1.[Br-],C1230_A0004,A132065,180,453.15,C9H12BrNO,9,12,1,1,0,0,0,0,1,0,0
CC(C)C(=O)C[n+]1ccccc1.[Br-],C1231_A0004,A132065,149,422.15,C10H14BrNO,10,14,1,1,0,0,0,0,1,0,0
CC(C)COC(=O)C[n+]1ccccc1.[Br-],C1232_A0004,A132065,87,360.15,C11H16BrNO2,11,16,1,2,0,0,0,0,1,0,0
CCCCCCCCCCCC(=O)OCC[n+]1ccccc1.[Br-],C1233_A0004,A132065,81,354.15,C19H32BrNO2,19,32,1,2,0,0,0,0,1,0,0
CCCCCCCCCCCCCCCC(=O)OCC[n+]1ccccc1.[Br-],C1234_A0004,A132065,80,353.15,C23H40BrNO2,23,40,1,2,0,0,0,0,1,0,0
CCCCCCCCCCCCCCCCCCCC(=O)OCC[n+]1ccccc1.[Br-],C1235_A0004,A132065,81,354.15,C27H48BrNO2,27,48,1,2,0,0,0,0,1,0,0
CC(O)c1c(O)c(O)cc[n+]1C.[Br-],C1236_A0004,A132065,142,415.15,C8H12BrNO3,8,12,1,3,0,0,0,0,1,0,0
O=C1OCCN1C(=O)c1ccc[n+](Cc2ccccc2)c1.[Br-],C1237_A0004,A132065,109,382.15,C16H15BrN2O3,16,15,2,3,0,0,0,0,1,0,0
CN(C)C(=O)c1ccc[n+](Cc2ccccc2)c1.[Br-],C1238_A0004,A132065,159,432.15,C15H17BrN2O,15,17,2,1,0,0,0,0,1,0,0
N#CCCC[n+]1ccccc1.[Br-],C0233_A0004,A132065,83,356.15,C9H11BrN2,9,11,2,0,0,0,0,0,1,0,0
Cc1ccc[n+](CC#N)c1.[Br-],C1239_A0004,A132065,183,456.15,C8H9BrN2,8,9,2,0,0,0,0,0,1,0,0
Cc1cccc[n+]1CC#N.[Br-],C1240_A0004,A132065,194,467.15,C8H9BrN2,8,9,2,0,0,0,0,0,1,0,0
Cc1ccc(C)[n+](CC#N)c1.[Br-],C1241_A0004,A132065,160,433.15,C9H11BrN2,9,11,2,0,0,0,0,0,1,0,0
Cc1cc[n+](CCCC#N)cc1.[Br-],C1242_A0004,A132065,124,397.15,C10H13BrN2,10,13,2,0,0,0,0,0,1,0,0
Cc1cccc[n+]1CCCC#N.[Br-],C1243_A0004,A132065,139,412.15,C10H13BrN2,10,13,2,0,0,0,0,0,1,0,0
Cc1ccc(C)[n+](CCCC#N)c1.[Br-],C1244_A0004,A132065,142,415.15,C11H15BrN2,11,15,2,0,0,0,0,0,1,0,0
CCc1cc[n+](CC#N)cc1.[Br-],C1245_A0004,A132065,120,393.15,C9H11BrN2,9,11,2,0,0,0,0,0,1,0,0
CCc1cccc[n+]1CC#N.[Br-],C1246_A0004,A132065,173,446.15,C9H11BrN2,9,11,2,0,0,0,0,0,1,0,0
CCc1cc[n+](CCCC#N)cc1.[Br-],C1247_A0004,A132065,152,425.15,C11H15BrN2,11,15,2,0,0,0,0,0,1,0,0
COC(=O)c1ccc[n+](CCCC#N)c1.[Br-],C1248_A0004,A132065,182,455.15,C11H13BrN2O2,11,13,2,2,0,0,0,0,1,0,0
C[N+]1(CC#N)CCCCC1.[Br-],C1249_A0004,A132065,192,465.15,C8H15BrN2,8,15,2,0,0,0,0,0,1,0,0
C[N+]1(CCCC#N)CCCCC1.[Br-],C1250_A0004,A132065,137,410.15,C10H19BrN2,10,19,2,0,0,0,0,0,1,0,0
N#CC[N+]1(CC#N)CCCC1.[Br-],C1251_A0004,A132065,142,415.15,C8H12BrN3,8,12,3,0,0,0,0,0,1,0,0
N#CC[N+]1(CC#N)CCCCC1.[Br-],C1252_A0004,A132065,199,472.15,C9H14BrN3,9,14,3,0,0,0,0,0,1,0,0
N#CC[n+]1ccccc1.O=S(=O)([N-]S(=O)(=O)C(F)(F)F)C(F)(F)F,C0364_A0048,A132065,44,317.15,C9H7F6N3O4S2,9,7,3,4,2,0,6,0,0,0,0
Cc1cccc[n+]1CC#N.O=S(=O)([N-]S(=O)(=O)C(F)(F)F)C(F)(F)F,C1240_A0048,A132065,51,324.15,C10H9F6N3O4S2,10,9,3,4,2,0,6,0,0,0,0
CCc1cc[n+](CC#N)cc1.O=S(=O)([N-]S(=O)(=O)C(F)(F)F)C(F)(F)F,C1245_A0048,A132065,48,321.15,C11H11F6N3O4S2,11,11,3,4,2,0,6,0,0,0,0
N#CC[N+]1(CC#N)CCCC1.O=S(=O)([N-]S(=O)(=O)C(F)(F)F)C(F)(F)F,C1251_A0048,A132065,58,331.15,C10H12F6N4O4S2,10,12,4,4,2,0,6,0,0,0,0
N#CC[N+]1(CC#N)CCCCC1.O=S(=O)([N-]S(=O)(=O)C(F)(F)F)C(F)(F)F,C1252_A0048,A132065,62,335.15,C11H14F6N4O4S2,11,14,4,4,2,0,6,0,0,0,0
CS(=O)(=O)[O-].Cn1cc[n+](C)c1,C0958_A0054,A132065,91,364.15,C6H12N2O3S,6,12,2,3,1,0,0,0,0,0,0
CC[n+]1ccn(C)c1.CS(=O)(=O)[O-],C0460_A0054,A132065,31,304.15,C7H14N2O3S,7,14,2,3,1,0,0,0,0,0,0
CCC[n+]1ccn(C)c1.CS(=O)(=O)[O-],C0811_A0054,A132065,40,313.15,C8H16N2O3S,8,16,2,3,1,0,0,0,0,0,0
CCCC[n+]1ccn(C)c1.CS(=O)(=O)[O-],C0505_A0054,A132065,74,347.15,C9H18N2O3S,9,18,2,3,1,0,0,0,0,0,0
CCCCC[n+]1ccn(C)c1.CS(=O)(=O)[O-],C0782_A0054,A132065,77,350.15,C10H20N2O3S,10,20,2,3,1,0,0,0,0,0,0
CCCCCCCC[n+]1ccn(C)c1.CS(=O)(=O)[O-],C0290_A0054,A132065,38,311.15,C13H26N2O3S,13,26,2,3,1,0,0,0,0,0,0
CCCCCCCCCC[n+]1ccn(C)c1.CS(=O)(=O)[O-],C0515_A0054,A132065,57,330.15,C15H30N2O3S,15,30,2,3,1,0,0,0,0,0,0
CCC[n+]1ccn(C)c1.CCS(=O)(=O)[O-],C0811_A0103,A132065,19,292.15,C9H18N2O3S,9,18,2,3,1,0,0,0,0,0,0
CCCC[n+]1ccn(C)c1.CCS(=O)(=O)[O-],C0505_A0103,A132065,57,330.15,C10H20N2O3S,10,20,2,3,1,0,0,0,0,0,0
CCCCC[n+]1ccn(C)c1.CCS(=O)(=O)[O-],C0782_A0103,A132065,54,327.15,C11H22N2O3S,11,22,2,3,1,0,0,0,0,0,0
CCCCCC[n+]1ccn(C)c1.CCS(=O)(=O)[O-],C0190_A0103,A132065,66,339.15,C12H24N2O3S,12,24,2,3,1,0,0,0,0,0,0
CCCS(=O)(=O)[O-].CCC[n+]1ccn(C)c1,C0811_A0104,A132065,32,305.15,C10H20N2O3S,10,20,2,3,1,0,0,0,0,0,0
CCCC[n+]1ccn(C)c1.CCCS(=O)(=O)[O-],C0505_A0104,A132065,53,326.15,C11H22N2O3S,11,22,2,3,1,0,0,0,0,0,0
CCCCS(=O)(=O)[O-].CCC[n+]1ccn(C)c1,C0811_A0105,A132065,47,320.15,C11H22N2O3S,11,22,2,3,1,0,0,0,0,0,0
CCCCCCS(=O)(=O)[O-].CC[n+]1ccn(C)c1,C0460_A0106,A132065,19,292.15,C12H24N2O3S,12,24,2,3,1,0,0,0,0,0,0
O=C([O-])C(=O)O.c1ccn2cc[nH+]c2c1,C1254_A0107,A132065,130,403.15,C9H8N2O4,9,8,2,4,0,0,0,0,0,0,0
O=C([O-])c1ccccc1C(=O)O.c1ccn2cc[nH+]c2c1,C1254_A0088,A132065,88,361.15,C15H12N2O4,15,12,2,4,0,0,0,0,0,0,0
O=S(=O)([O-])O.c1ccn2cc[nH+]c2c1,C1254_A0017,A132065,62,335.15,C7H8N2O4S,7,8,2,4,1,0,0,0,0,0,0
ClCC[NH+]1CCOCC1.O=S(=O)([N-]S(=O)(=O)C(F)(F)F)C(F)(F)F,C1255_A0048,A132065,23,296.15,C8H13ClF6N2O5S2,8,13,2,5,2,0,6,1,0,0,0
ClCC[NH+]1CCCCC1.O=S(=O)([N-]S(=O)(=O)C(F)(F)F)C(F)(F)F,C1256_A0048,A132065,34,307.15,C9H15ClF6N2O4S2,9,15,2,4,2,0,6,1,0,0,0
ClCC[NH+]1CCCC1.O=S(=O)([N-]S(=O)(=O)C(F)(F)F)C(F)(F)F,C1257_A0048,A132065,29,302.15,C8H13ClF6N2O4S2,8,13,2,4,2,0,6,1,0,0,0
CC[NH+](CC)CCCl.O=S(=O)([N-]S(=O)(=O)C(F)(F)F)C(F)(F)F,C1258_A0048,A132065,-8.5,264.65,C8H15ClF6N2O4S2,8,15,2,4,2,0,6,1,0,0,0
C[NH+](C)CCCl.O=S(=O)([N-]S(=O)(=O)C(F)(F)F)C(F)(F)F,C1259_A0048,A132065,24,297.15,C6H11ClF6N2O4S2,6,11,2,4,2,0,6,1,0,0,0
C[NH+](C)CCCCl.O=S(=O)([N-]S(=O)(=O)C(F)(F)F)C(F)(F)F,C1260_A0048,A132065,32,305.15,C7H13ClF6N2O4S2,7,13,2,4,2,0,6,1,0,0,0
CCC[N+]1(C)CCCC1.O=S(=O)([O-])C(F)(F)F,C0152_A0084,A132065,77,350.15,C9H18F3NO3S,9,18,1,3,1,0,3,0,0,0,0
CCCC[n+]1ccc(C#N)cc1.N#C[C-](C#N)C#N,C1261_A0055,A132065,89,362.15,C14H13N5,14,13,5,0,0,0,0,0,0,0,0
Cn1cc[n+](CC(CBr)N=[N+]=[N-])c1.[Br-],C1262_A0004,A132065,10,283.15,C7H11Br2N5,7,11,5,0,0,0,0,0,2,0,0
Cn1cc[n+](CC(Br)CN=[N+]=[N-])c1.[Br-],C1263_A0004,A132065,17,290.15,C7H11Br2N5,7,11,5,0,0,0,0,0,2,0,0
Cn1cc[n+](CC(CBr)N=[N+]=[N-])c1.N#C[N-]C#N,C1262_A0056,A132065,-2,271.15,C9H11BrN8,9,11,8,0,0,0,0,0,1,0,0
Cn1cc[n+](CC(Br)CN=[N+]=[N-])c1.N#C[N-]C#N,C1263_A0056,A132065,6,279.15,C9H11BrN8,9,11,8,0,0,0,0,0,1,0,0
CCCC[n+]1csc2ccccc21.F[P-](F)(F)(F)(F)F,C1266_A0011,A132065,122,395.15,C11H14F6NPS,11,14,1,0,1,1,6,0,0,0,0
CCCCC[n+]1csc2ccccc21.F[P-](F)(F)(F)(F)F,C1267_A0011,A132065,139,412.15,C12H16F6NPS,12,16,1,0,1,1,6,0,0,0,0
CCCCCC[n+]1csc2ccccc21.F[P-](F)(F)(F)(F)F,C1268_A0011,A132065,86,359.15,C13H18F6NPS,13,18,1,0,1,1,6,0,0,0,0
CCCCCCC[n+]1csc2ccccc21.F[P-](F)(F)(F)(F)F,C1269_A0011,A132065,86,359.15,C14H20F6NPS,14,20,1,0,1,1,6,0,0,0,0
CCCCCCCC[n+]1csc2ccccc21.F[P-](F)(F)(F)(F)F,C1270_A0011,A132065,61,334.15,C15H22F6NPS,15,22,1,0,1,1,6,0,0,0,0
C[N+]1(CCCO)CCOCC1.O=S(=O)([N-]S(=O)(=O)C(F)(F)F)C(F)(F)F,C1271_A0048,A132065,14,287.15,C10H18F6N2O6S2,10,18,2,6,2,0,6,0,0,0,0
[Cl-].c1ccc([P+](c2ccccc2)(c2ccccc2)c2ccccc2)cc1,C1272_A0033,A132065,277,550.15,C24H20ClP,24,20,0,0,0,1,0,1,0,0,0
O=[N+]([O-])[N-][N+](=O)[O-].[NH4+],C1273_A0063,A132065,93,366.15,H4N4O4,0,4,4,4,0,0,0,0,0,0,0
CC(C)CCC[n+]1ccn(C)c1.O=S(=O)([N-]S(=O)(=O)C(F)(F)F)C(F)(F)F,C1274_A0048,A132065,3,276.15,C12H19F6N3O4S2,12,19,3,4,2,0,6,0,0,0,0
CC(C)CC[n+]1ccn(C)c1.O=S(=O)([N-]S(=O)(=O)C(F)(F)F)C(F)(F)F,C0584_A0048,A132065,0,273.15,C11H17F6N3O4S2,11,17,3,4,2,0,6,0,0,0,0
CC(C)CCCC[n+]1ccn(C)c1.O=S(=O)([N-]S(=O)(=O)C(F)(F)F)C(F)(F)F,C1275_A0048,A132065,11,284.15,C13H21F6N3O4S2,13,21,3,4,2,0,6,0,0,0,0
CC[n+]1cnn(C)c1.O=S(=O)([N-]S(=O)(=O)C(F)(F)F)C(F)(F)F,C1276_A0048,A132065,50,323.15,C7H10F6N4O4S2,7,10,4,4,2,0,6,0,0,0,0
CCC[n+]1cnn(C)c1.O=S(=O)([N-]S(=O)(=O)C(F)(F)F)C(F)(F)F,C1277_A0048,A132065,32,305.15,C8H12F6N4O4S2,8,12,4,4,2,0,6,0,0,0,0
CCCCCCCC[n+]1cnn(C)c1.O=S(=O)([N-]S(=O)(=O)C(F)(F)F)C(F)(F)F,C1278_A0048,A132065,17,290.15,C13H22F6N4O4S2,13,22,4,4,2,0,6,0,0,0,0
CCCC[n+]1cnn(C)c1.F[P-](F)(F)(F)(F)F,C1279_A0011,A132065,55,328.15,C7H14F6N3P,7,14,3,0,0,1,6,0,0,0,0
CC[S+](C)CC.O=S(=O)([N-]S(=O)(=O)C(F)(F)F)C(F)(F)F,C1280_A0048,A132065,-12,261.15,C7H13F6NO4S3,7,13,1,4,3,0,6,0,0,0,0
CC[S+](CC)CC.O=S(=O)([N-]S(=O)(=O)C(F)(F)F)C(F)(F)F,C0598_A0048,A132065,-18,255.15,C8H15F6NO4S3,8,15,1,4,3,0,6,0,0,0,0
CCC[S+](CC)CC.O=S(=O)([N-]S(=O)(=O)C(F)(F)F)C(F)(F)F,C1281_A0048,A132065,-6,267.15,C9H17F6NO4S3,9,17,1,4,3,0,6,0,0,0,0
CCCC[P+](CC)(CC)CC.FC(F)(F)c1cc[n-]n1,C0519_A0109,A132065,11,284.15,C14H26F3N2P,14,26,2,0,0,1,3,0,0,0,0
CCCC[P+](CC)(CC)CC.Cc1cc(C(F)(F)F)[n-]n1,C0519_A0110,A132065,21,294.15,C15H28F3N2P,15,28,2,0,0,1,3,0,0,0,0
CCCCCCCC[P+](CC)(CC)CC.c1ccc2[n-]ncc2c1,C1210_A0111,A132065,-9,264.15,C21H37N2P,21,37,2,0,0,1,0,0,0,0,0