IL_SMILES,NAME,ARTICLEID,IL-Tm (deg-C),IL-Tm (K),MolecularFormula,C,H,N,O,S,P,F,Cl,Br,I,Si
CCCCCCCCCC[N+](CC)(CC)CC.[Br-],C0412_A0004,A132065,107,380.15,C16H36BrN,16,36,1,0,0,0,0,0,1,0,0
C[N+](C)(C)c1cccc(O)c1.[Br-],C0388_A0004,A132065,207,480.15,C9H14BrNO,9,14,1,1,0,0,0,0,1,0,0
CC(C[N+](C)(C)C)c1ccccc1.[Br-],C0859_A0004,A132065,179,452.15,C12H20BrN,12,20,1,0,0,0,0,0,1,0,0
CCCCCCCCCCCCCCCC[N+](C)(C)C(C)O.[Br-],C0348_A0004,A132065,117,390.15,C20H44BrNO,20,44,1,1,0,0,0,0,1,0,0
CC(C)C(C[N+](C)(C)C)c1ccccc1.[Br-],C0752_A0004,A132065,171,444.15,C14H24BrN,14,24,1,0,0,0,0,0,1,0,0
C=C(C)C[N+](C)(C)c1cccc(O)c1.[Br-],C0545_A0004,A132065,114,387.15,C12H18BrNO,12,18,1,1,0,0,0,0,1,0,0
C[N+](C)(C)CCC(=O)c1ccc(O)cc1.[Br-],C0988_A0004,A132065,207,480.15,C12H18BrNO2,12,18,1,2,0,0,0,0,1,0,0
COc1cccc(C(=O)CC[N+](C)(C)C)c1.[Br-],C0174_A0004,A132065,144,417.15,C13H20BrNO2,13,20,1,2,0,0,0,0,1,0,0
Cc1ccc(C(C[N+](C)(C)C)c2ccc(C)cc2)cc1.[Br-],C0355_A0004,A132065,246,519.15,C19H26BrN,19,26,1,0,0,0,0,0,1,0,0
Cc1ccc([N+](C)(C)C(C)c2ccccc2)cc1.[Br-],C0118_A0004,A132065,102,375.15,C17H22BrN,17,22,1,0,0,0,0,0,1,0,0
COc1ccc([N+](C)(C)C(C)c2ccccc2)cc1.[Br-],C0602_A0004,A132065,108,381.15,C17H22BrNO,17,22,1,1,0,0,0,0,1,0,0
C=C(C)C[N+](C)(C)c1cc(C(C)(C)C)c(O)c(C(C)(C)C)c1.[Br-],C0983_A0004,A132065,142,415.15,C20H34BrNO,20,34,1,1,0,0,0,0,1,0,0
CC(C)=CC[N+](C)(C)c1cc(C(C)(C)C)c(O)c(C(C)(C)C)c1.[Br-],C0208_A0004,A132065,136,409.15,C21H36BrNO,21,36,1,1,0,0,0,0,1,0,0
COc1ccc(C(C[N+](C)(C)C)c2ccc(OC)cc2)cc1.[Br-],C0043_A0004,A132065,229,502.15,C19H26BrNO2,19,26,1,2,0,0,0,0,1,0,0
C=C(C)C#CC[N+](C)(C)c1cc(C(C)(C)C)c(O)c(C(C)(C)C)c1.[Br-],C0499_A0004,A132065,150,423.15,C22H34BrNO,22,34,1,1,0,0,0,0,1,0,0
CC(C)(C)c1cc([N+](C)(C)Cc2ccccc2)cc(C(C)(C)C)c1O.[Br-],C0385_A0004,A132065,173,446.15,C23H34BrNO,23,34,1,1,0,0,0,0,1,0,0
CCCCCCCCCCCCCCCC[N+](C)(C)Cc1ccccc1O.[Br-],C0136_A0004,A132065,51,324.15,C25H46BrNO,25,46,1,1,0,0,0,0,1,0,0
CC(C)(C)c1cc([N+](C)(C)CC=Cc2ccccc2)cc(C(C)(C)C)c1O.[Br-],C0465_A0004,A132065,160,433.15,C25H36BrNO,25,36,1,1,0,0,0,0,1,0,0
C=CC[N+](C)(CCOC(=O)CCCCCCCCCCC)CCOC(=O)CCCCCCCCCCC.[Br-],C0392_A0004,A132065,78,351.15,C32H62BrNO4,32,62,1,4,0,0,0,0,1,0,0
C=CC[N+](C)(CCOC(=O)CCCCCCCCCCCCCCC)CCOC(=O)CCCCCCCCCCCCCCC.[Br-],C0013_A0004,A132065,89,362.15,C40H78BrNO4,40,78,1,4,0,0,0,0,1,0,0
CC[N+](C)(CC)C(C)c1ccccc1.[Br-],C0353_A0004,A132065,153,426.15,C13H22BrN,13,22,1,0,0,0,0,0,1,0,0
CC[N+](CC)(CC)C(C)c1ccccc1.[Br-],C0796_A0004,A132065,149,422.15,C14H24BrN,14,24,1,0,0,0,0,0,1,0,0
CCC[N+](CCC)(CCC)C(C)c1ccccc1.[Br-],C0143_A0004,A132065,162,435.15,C17H30BrN,17,30,1,0,0,0,0,0,1,0,0
CC(c1ccccc1)[N+](C)(C)Cc1ccccc1.[Br-],C1045_A0004,A132065,155,428.15,C17H22BrN,17,22,1,0,0,0,0,0,1,0,0
CC[N+](CC)(Cc1ccccc1)C(C)c1ccccc1.[Br-],C0227_A0004,A132065,142,415.15,C19H26BrN,19,26,1,0,0,0,0,0,1,0,0
C=CCC=CC[N+](C)(C)Cc1ccccc1.[Br-],C0606_A0004,A132065,125,398.15,C15H22BrN,15,22,1,0,0,0,0,0,1,0,0
C=CCC(C)(C=C)[N+](C)(C)Cc1ccccc1.[Br-],C0586_A0004,A132065,136,409.15,C16H24BrN,16,24,1,0,0,0,0,0,1,0,0
COCC[N+](C)(C)Cc1ccccc1.[Br-],C0129_A0004,A132065,125,398.15,C12H20BrNO,12,20,1,1,0,0,0,0,1,0,0
C[N+](C)(CCCO)Cc1ccccc1.[Br-],C0772_A0004,A132065,101,374.15,C12H20BrNO,12,20,1,1,0,0,0,0,1,0,0
CC=CC(C)[N+](C)(C)C.[Br-],C0661_A0004,A132065,171,444.15,C8H18BrN,8,18,1,0,0,0,0,0,1,0,0
CC(=O)OC(C)C[N+](C)(C)C.[Br-],C0562_A0004,A132065,148,421.15,C8H18BrNO2,8,18,1,2,0,0,0,0,1,0,0
CC[N+](C)(Cc1ccccc1)c1ccccc1.[Br-],C0285_A0004,A132065,156,429.15,C16H20BrN,16,20,1,0,0,0,0,0,1,0,0
C[N+](C)(C)CC(O)c1ccc(O)c(O)c1.[Br-],C0132_A0004,A132065,196,469.15,C11H18BrNO3,11,18,1,3,0,0,0,0,1,0,0
C[N+](C)(C)CCCCCC(=O)O.[Br-],C0747_A0004,A132065,183,456.15,C9H20BrNO2,9,20,1,2,0,0,0,0,1,0,0
CCC[N+](C)(CC)Cc1ccccc1.[Br-],C0068_A0004,A132065,123,396.15,C13H22BrN,13,22,1,0,0,0,0,0,1,0,0
CC(=O)C[N+](C)(C)CC(=O)c1ccccc1.[Br-],C0696_A0004,A132065,149,422.15,C13H18BrNO2,13,18,1,2,0,0,0,0,1,0,0
COc1ccc(C(=O)C[N+](C)(C)CC(C)=O)cc1.[Br-],C0100_A0004,A132065,146,419.15,C14H20BrNO3,14,20,1,3,0,0,0,0,1,0,0
Cc1cc(C[N+](C)(C)c2ccccc2)cc(C)c1O.[Br-],C0029_A0004,A132065,132,405.15,C17H22BrNO,17,22,1,1,0,0,0,0,1,0,0
CCCCOC[N+](C)(C)C.[Br-],C0415_A0004,A132065,74,347.15,C8H20BrNO,8,20,1,1,0,0,0,0,1,0,0
CCCCCCCCCC[n+]1cccc(CCCCC)c1.[Br-],C0538_A0004,A132065,30,303.15,C20H36BrN,20,36,1,0,0,0,0,0,1,0,0
CCC(=O)OCCCCCCCCCCC[n+]1ccccc1.[Br-],C1116_A0004,A132065,35,308.15,C19H32BrNO2,19,32,1,2,0,0,0,0,1,0,0
CCOC(=O)c1c[n+](Cc2ccccc2)ccc1C(c1ccccc1)c1ccccc1.[Br-],C0386_A0004,A132065,35,308.15,C28H26BrNO2,28,26,1,2,0,0,0,0,1,0,0
CCCCCCCC[n+]1ccc(CCC)cc1.[Br-],C0524_A0004,A132065,37,310.15,C16H28BrN,16,28,1,0,0,0,0,0,1,0,0
CCCCCCCCCCCCCC[n+]1ccc(CCCCCC)cc1.[Br-],C0621_A0004,A132065,37,310.15,C25H46BrN,25,46,1,0,0,0,0,0,1,0,0
CCCCCCCCCCCCCC[n+]1cccc(CCCCC)c1.[Br-],C0558_A0004,A132065,39,312.15,C24H44BrN,24,44,1,0,0,0,0,0,1,0,0
CCCCCCCCCC[n+]1ccc(C(=O)OCC)cc1.[Br-],C0437_A0004,A132065,41,314.15,C18H30BrNO2,18,30,1,2,0,0,0,0,1,0,0
CCCCCCCCCCCC[n+]1ccc(CCC)cc1.[Br-],C0849_A0004,A132065,41,314.15,C20H36BrN,20,36,1,0,0,0,0,0,1,0,0
CCCCCCCCCCC[n+]1ccccc1.[Br-],C0362_A0004,A132065,42,315.15,C16H28BrN,16,28,1,0,0,0,0,0,1,0,0
CCCCCCCC[n+]1ccc(CC)cc1.[Br-],C0615_A0004,A132065,43,316.15,C15H26BrN,15,26,1,0,0,0,0,0,1,0,0
CCCCCCCCCCCC[n+]1ccc(CC)cc1.[Br-],C0996_A0004,A132065,44,317.15,C19H34BrN,19,34,1,0,0,0,0,0,1,0,0
CCCCCCCCCC[n+]1ccccc1.[Br-],C0535_A0004,A132065,45,318.15,C15H26BrN,15,26,1,0,0,0,0,0,1,0,0
CCCCCCCCCCCC[n+]1ccccc1.[Br-],C0527_A0004,A132065,45,318.15,C17H30BrN,17,30,1,0,0,0,0,0,1,0,0
CCCCCCC(C)Cc1cccc[n+]1CCCCCC.[Br-],C0889_A0004,A132065,47,320.15,C20H36BrN,20,36,1,0,0,0,0,0,1,0,0
CCCCc1ccc(C)[n+](CC(=O)OCC)c1.[Br-],C0483_A0004,A132065,51,324.15,C14H22BrNO2,14,22,1,2,0,0,0,0,1,0,0
COc1ccc(OC)c(CC[n+]2ccccc2)c1.[Br-],C0120_A0004,A132065,54,327.15,C15H18BrNO2,15,18,1,2,0,0,0,0,1,0,0
CCCCCCCCCCCCC[n+]1ccccc1.[Br-],C0906_A0004,A132065,55,328.15,C18H32BrN,18,32,1,0,0,0,0,0,1,0,0
Fc1ccc(C[n+]2ccccc2)cc1.[Br-],C0256_A0004,A132065,58,331.15,C12H11BrFN,12,11,1,0,0,0,1,0,1,0,0
CCCCCCCCCCCCCC[n+]1ccccc1.[Br-],C0209_A0004,A132065,59,332.15,C19H34BrN,19,34,1,0,0,0,0,0,1,0,0
CCCC[n+]1ccc(C(=O)OCC)cc1.[Br-],C0135_A0004,A132065,60,333.15,C12H18BrNO2,12,18,1,2,0,0,0,0,1,0,0
CC(C)C[n+]1ccccc1.[Br-],C0469_A0004,A132065,64,337.15,C9H14BrN,9,14,1,0,0,0,0,0,1,0,0
C[n+]1cccc(CCCO)c1.[Br-],C1097_A0004,A132065,64,337.15,C9H14BrNO,9,14,1,1,0,0,0,0,1,0,0
Cc1ccc[n+](Cc2ccccc2)c1.[Br-],C0846_A0004,A132065,65,338.15,C13H14BrN,13,14,1,0,0,0,0,0,1,0,0
CCCC[n+]1ccccc1SCc1ccccc1.[Br-],C0743_A0004,A132065,65,338.15,C16H20BrNS,16,20,1,0,1,0,0,0,1,0,0
O=C(C[n+]1ccccc1)C1CCCCC1.[Br-],C1048_A0004,A132065,69,342.15,C13H18BrNO,13,18,1,1,0,0,0,0,1,0,0
CCCc1cccc[n+]1C.[Br-],C0574_A0004,A132065,70,343.15,C9H14BrN,9,14,1,0,0,0,0,0,1,0,0
CCOC(=O)CC[n+]1ccccc1.[Br-],C0531_A0004,A132065,71,344.15,C10H14BrNO2,10,14,1,2,0,0,0,0,1,0,0
CCOC(=O)C(CC)[n+]1ccccc1.[Br-],C0507_A0004,A132065,73,346.15,C11H16BrNO2,11,16,1,2,0,0,0,0,1,0,0
CCC[n+]1ccccc1.[Br-],C0203_A0004,A132065,76,349.15,C8H12BrN,8,12,1,0,0,0,0,0,1,0,0
CCN(CC)C(=O)c1ccc[n+](CC)c1.[Br-],C0476_A0004,A132065,77,350.15,C12H19BrN2O,12,19,2,1,0,0,0,0,1,0,0
[Br-].c1ccc(OCC[n+]2ccccc2)cc1,C0807_A0004,A132065,78,351.15,C13H14BrNO,13,14,1,1,0,0,0,0,1,0,0
Cc1cc(C)[n+](C)c(C)c1C.[Br-],C0759_A0004,A132065,79,352.15,C10H16BrN,10,16,1,0,0,0,0,0,1,0,0
C[n+]1ccc(CCCO)cc1.[Br-],C1147_A0004,A132065,79,352.15,C9H14BrNO,9,14,1,1,0,0,0,0,1,0,0
CC[n+]1c(C)cccc1C.[Br-],C1061_A0004,A132065,80,353.15,C9H14BrN,9,14,1,0,0,0,0,0,1,0,0
C[n+]1cccc(-c2ccccn2)c1.[Br-],C0504_A0004,A132065,80,353.15,C11H11BrN2,11,11,2,0,0,0,0,0,1,0,0
CC(C)OC(=O)C[n+]1ccccc1.[Br-],C0365_A0004,A132065,80,353.15,C10H14BrNO2,10,14,1,2,0,0,0,0,1,0,0
Cc1cc[n+](CN2CCOCC2)cc1.[Br-],C0147_A0004,A132065,83,356.15,C11H17BrN2O,11,17,2,1,0,0,0,0,1,0,0
C[n+]1ccc(Cc2ccccc2)cc1.[Br-],C0395_A0004,A132065,86,359.15,C13H14BrN,13,14,1,0,0,0,0,0,1,0,0
CCOC(=O)c1ccc[n+](CCF)c1.[Br-],C0367_A0004,A132065,87,360.15,C10H13BrFNO2,10,13,1,2,0,0,1,0,1,0,0
Cc1cc[n+](CCc2ccccc2)cc1.[Br-],C0946_A0004,A132065,90,363.15,C14H16BrN,14,16,1,0,0,0,0,0,1,0,0
CCCC[n+]1cccc(C(=O)O)c1.[Br-],C0053_A0004,A132065,91,364.15,C10H14BrNO2,10,14,1,2,0,0,0,0,1,0,0
C=CC[n+]1cccc(C(=O)N(CC)CC)c1.[Br-],C0521_A0004,A132065,92,365.15,C13H19BrN2O,13,19,2,1,0,0,0,0,1,0,0
CCOC(=O)C(C(=O)OCC)[n+]1ccccc1.[Br-],C0616_A0004,A132065,94,367.15,C12H16BrNO4,12,16,1,4,0,0,0,0,1,0,0
CC(=O)OCCCC[n+]1cccc(O)c1.[Br-],C0102_A0004,A132065,95,368.15,C11H16BrNO3,11,16,1,3,0,0,0,0,1,0,0
[Br-].c1ccc(CO[n+]2ccccc2)cc1,C1002_A0004,A132065,95,368.15,C12H12BrNO,12,12,1,1,0,0,0,0,1,0,0
C=CC[n+]1ccccc1.[Br-],C0625_A0004,A132065,96,369.15,C8H10BrN,8,10,1,0,0,0,0,0,1,0,0
CCOC(=O)c1ccc[n+](C)c1.[Br-],C1049_A0004,A132065,96,369.15,C9H12BrNO2,9,12,1,2,0,0,0,0,1,0,0
Cc1ccc[n+](CCO)c1.[Br-],C0740_A0004,A132065,97,370.15,C8H12BrNO,8,12,1,1,0,0,0,0,1,0,0
CC[n+]1ccccc1C.[Br-],C0479_A0004,A132065,97,370.15,C8H12BrN,8,12,1,0,0,0,0,0,1,0,0
CC(C)[n+]1ccccc1.[Br-],C0346_A0004,A132065,97,370.15,C8H12BrN,8,12,1,0,0,0,0,0,1,0,0
CCCC[n+]1ccccc1.[Br-],C0734_A0004,A132065,98,371.15,C9H14BrN,9,14,1,0,0,0,0,0,1,0,0
CC[n+]1ccc(-c2ccncc2)cc1.[Br-],C1076_A0004,A132065,98,371.15,C12H13BrN2,12,13,2,0,0,0,0,0,1,0,0
C=CC[n+]1cccc(O)c1.[Br-],C0004_A0004,A132065,98,371.15,C8H10BrNO,8,10,1,1,0,0,0,0,1,0,0
[Br-].c1ccc(C[n+]2ccccc2)cc1,C0806_A0004,A132065,99,372.15,C12H12BrN,12,12,1,0,0,0,0,0,1,0,0
CCOC(=O)CCc1cc[n+](C)cc1.[Br-],C0690_A0004,A132065,100,373.15,C11H16BrNO2,11,16,1,2,0,0,0,0,1,0,0
CC[n+]1cccc(C(C)=O)c1.[Br-],C0804_A0004,A132065,100,373.15,C9H12BrNO,9,12,1,1,0,0,0,0,1,0,0
C=CC[n+]1cccc(C=O)c1.[Br-],C0369_A0004,A132065,100,373.15,C9H10BrNO,9,10,1,1,0,0,0,0,1,0,0
CC(=O)C[n+]1c(C)cccc1C.[Br-],C0015_A0004,A132065,104,377.15,C10H14BrNO,10,14,1,1,0,0,0,0,1,0,0
CC[n+]1cccc(O)c1.[Br-],C0336_A0004,A132065,106,379.15,C7H10BrNO,7,10,1,1,0,0,0,0,1,0,0
CCO[n+]1ccc(OC)cc1.[Br-],C0494_A0004,A132065,109,382.15,C8H12BrNO2,8,12,1,2,0,0,0,0,1,0,0
CCCOC(=O)C[n+]1ccccc1.[Br-],C1089_A0004,A132065,110,383.15,C10H14BrNO2,10,14,1,2,0,0,0,0,1,0,0
C=CC[n+]1ccccc1CO.[Br-],C0389_A0004,A132065,110,383.15,C9H12BrNO,9,12,1,1,0,0,0,0,1,0,0
OCC[n+]1ccccc1.[Br-],C0530_A0004,A132065,110,383.15,C7H10BrNO,7,10,1,1,0,0,0,0,1,0,0
C=CC[n+]1ccc(CO)cc1.[Br-],C1016_A0004,A132065,111,384.15,C9H12BrNO,9,12,1,1,0,0,0,0,1,0,0
C#CCCCC[n+]1ccccc1.[Br-],C0719_A0004,A132065,114,387.15,C11H14BrN,11,14,1,0,0,0,0,0,1,0,0
Cc1ccc[n+](CCC#N)c1.[Br-],C0857_A0004,A132065,116,389.15,C9H11BrN2,9,11,2,0,0,0,0,0,1,0,0
[Br-].c1cc[n+](-c2ccccn2)cc1,C0596_A0004,A132065,118,391.15,C10H9BrN2,10,9,2,0,0,0,0,0,1,0,0
CC(C)[n+]1ccc(CO)cc1.[Br-],C1090_A0004,A132065,119,392.15,C9H14BrNO,9,14,1,1,0,0,0,0,1,0,0
ClCCC[n+]1ccccc1.[Br-],C1085_A0004,A132065,120,393.15,C8H11BrClN,8,11,1,0,0,0,0,1,1,0,0
CC[n+]1ccccc1.[Br-],C0062_A0004,A132065,121,394.15,C7H10BrN,7,10,1,0,0,0,0,0,1,0,0
C=CC[n+]1ccc(C#N)cc1.[Br-],C0814_A0004,A132065,121,394.15,C9H9BrN2,9,9,2,0,0,0,0,0,1,0,0
CC[n+]1ccc(C)cc1.[Br-],C0250_A0004,A132065,121,394.15,C8H12BrN,8,12,1,0,0,0,0,0,1,0,0
CC(C)[n+]1ccccc1CO.[Br-],C0789_A0004,A132065,122,395.15,C9H14BrNO,9,14,1,1,0,0,0,0,1,0,0
OCC[n+]1cccc(O)c1.[Br-],C0751_A0004,A132065,123,396.15,C7H10BrNO2,7,10,1,2,0,0,0,0,1,0,0
Cc1cc[n+](CCO)cc1C.[Br-],C0273_A0004,A132065,127,400.15,C9H14BrNO,9,14,1,1,0,0,0,0,1,0,0
CC(C)=CC[n+]1ccc(C)cc1.[Br-],C0282_A0004,A132065,128,401.15,C11H16BrN,11,16,1,0,0,0,0,0,1,0,0
CC(=O)C(C)[n+]1ccccc1C.[Br-],C0370_A0004,A132065,133,406.15,C10H14BrNO,10,14,1,1,0,0,0,0,1,0,0
Cc1cc[n+](CCC#N)cc1C.[Br-],C0659_A0004,A132065,133,406.15,C10H13BrN2,10,13,2,0,0,0,0,0,1,0,0
CCOC(=O)C[n+]1ccccc1.[Br-],C1110_A0004,A132065,137,410.15,C9H12BrNO2,9,12,1,2,0,0,0,0,1,0,0
Cc1cc[n+](CCCBr)cc1.[Br-],C0925_A0004,A132065,140,413.15,C9H13Br2N,9,13,1,0,0,0,0,0,2,0,0
CC=C(C)C(C)[n+]1ccccc1.[Br-],C1041_A0004,A132065,140,413.15,C11H16BrN,11,16,1,0,0,0,0,0,1,0,0
COC(=O)c1ccc[n+](C)c1.[Br-],C0328_A0004,A132065,141,414.15,C8H10BrNO2,8,10,1,2,0,0,0,0,1,0,0
N#CCC[n+]1cccc(N)c1.[Br-],C0223_A0004,A132065,142,415.15,C8H10BrN3,8,10,3,0,0,0,0,0,1,0,0
CC(=O)C(C)[n+]1ccccc1.[Br-],C0338_A0004,A132065,144,417.15,C9H12BrNO,9,12,1,1,0,0,0,0,1,0,0
Cc1cc(C)c[n+](CC#N)c1.[Br-],C0879_A0004,A132065,144,417.15,C9H11BrN2,9,11,2,0,0,0,0,0,1,0,0
Cc1cc[n+](C)cc1O.[Br-],C1065_A0004,A132065,146,419.15,C7H10BrNO,7,10,1,1,0,0,0,0,1,0,0
Cc1cc[n+](CCC#N)cc1.[Br-],C0325_A0004,A132065,147,420.15,C9H11BrN2,9,11,2,0,0,0,0,0,1,0,0
N#CCC[n+]1ccccc1.[Br-],C0965_A0004,A132065,149,422.15,C8H9BrN2,8,9,2,0,0,0,0,0,1,0,0
C[n+]1ccccc1.[Br-],C0599_A0004,A132065,150,423.15,C6H8BrN,6,8,1,0,0,0,0,0,1,0,0
C[n+]1cccc(O)c1.[Br-],C0033_A0004,A132065,154,427.15,C6H8BrNO,6,8,1,1,0,0,0,0,1,0,0
C=C[n+]1ccccc1.[Br-],C0478_A0004,A132065,155,428.15,C7H8BrN,7,8,1,0,0,0,0,0,1,0,0
[Br-].c1ccc(-[n+]2ccccc2)cc1,C1020_A0004,A132065,155,428.15,C11H10BrN,11,10,1,0,0,0,0,0,1,0,0
OCC=C[n+]1ccccc1.[Br-],C0167_A0004,A132065,157,430.15,C8H10BrNO,8,10,1,1,0,0,0,0,1,0,0
C=C(C[n+]1ccccc1)C(=O)O.[Br-],C1060_A0004,A132065,157,430.15,C9H10BrNO2,9,10,1,2,0,0,0,0,1,0,0
C1=CC([n+]2ccccc2)CCC1.[Br-],C0847_A0004,A132065,160,433.15,C11H14BrN,11,14,1,0,0,0,0,0,1,0,0
Cc1cc(C)c[n+](CCC#N)c1.[Br-],C0092_A0004,A132065,161,434.15,C10H13BrN2,10,13,2,0,0,0,0,0,1,0,0
O=C(O)CCC[n+]1ccccc1.[Br-],C0660_A0004,A132065,163,436.15,C9H12BrNO2,9,12,1,2,0,0,0,0,1,0,0
COC(=O)c1cc[n+](C)cc1.[Br-],C0327_A0004,A132065,164,437.15,C8H10BrNO2,8,10,1,2,0,0,0,0,1,0,0
CC[n+]1ccc(C#N)cc1.[Br-],C0378_A0004,A132065,166,439.15,C8H9BrN2,8,9,2,0,0,0,0,0,1,0,0
N#CC[n+]1ccccc1.[Br-],C0364_A0004,A132065,167,440.15,C7H7BrN2,7,7,2,0,0,0,0,0,1,0,0
C[n+]1ccccc1CO.[Br-],C1121_A0004,A132065,168,441.15,C7H10BrNO,7,10,1,1,0,0,0,0,1,0,0
C=C[n+]1ccc(C)cc1.[Br-],C0259_A0004,A132065,169,442.15,C8H10BrN,8,10,1,0,0,0,0,0,1,0,0
COc1cc[n+](C(C)C)cc1.[Br-],C0520_A0004,A132065,170,443.15,C9H14BrNO,9,14,1,1,0,0,0,0,1,0,0
Cc1cc[n+](C)cc1.[Br-],C0067_A0004,A132065,173,446.15,C7H10BrN,7,10,1,0,0,0,0,0,1,0,0
COC(=O)C[n+]1ccccc1.[Br-],C0607_A0004,A132065,175,448.15,C8H10BrNO2,8,10,1,2,0,0,0,0,1,0,0
CCC[n+]1cccc(C(N)=O)c1.[Br-],C1059_A0004,A132065,175,448.15,C9H13BrN2O,9,13,2,1,0,0,0,0,1,0,0
CC[n+]1ccc(N(C)C)cc1.[Br-],C0400_A0004,A132065,176,449.15,C9H15BrN2,9,15,2,0,0,0,0,0,1,0,0
C#CC[n+]1ccc(C)cc1.[Br-],C0131_A0004,A132065,178,451.15,C9H10BrN,9,10,1,0,0,0,0,0,1,0,0
Cc1cc[n+](CC#N)cc1.[Br-],C0345_A0004,A132065,179,452.15,C8H9BrN2,8,9,2,0,0,0,0,0,1,0,0
FCC[n+]1ccccc1.[Br-],C0054_A0004,A132065,180,453.15,C7H9BrFN,7,9,1,0,0,0,1,0,1,0,0
CC(=O)c1cc[n+](C)cc1.[Br-],C0882_A0004,A132065,184,457.15,C8H10BrNO,8,10,1,1,0,0,0,0,1,0,0
C=CC[n+]1ccc(C=NO)cc1.[Br-],C0642_A0004,A132065,185,458.15,C9H11BrN2O,9,11,2,1,0,0,0,0,1,0,0
NNC(=O)C[n+]1ccccc1.[Br-],C0402_A0004,A132065,186,459.15,C7H10BrN3O,7,10,3,1,0,0,0,0,1,0,0
CC(=O)C[n+]1ccccc1.[Br-],C0551_A0004,A132065,187,460.15,C8H10BrNO,8,10,1,1,0,0,0,0,1,0,0
CC[n+]1ccc(C(N)=O)cc1.[Br-],C0650_A0004,A132065,188,461.15,C8H11BrN2O,8,11,2,1,0,0,0,0,1,0,0
O=C(O)C=C[n+]1ccccc1.[Br-],C0109_A0004,A132065,189,462.15,C8H8BrNO2,8,8,1,2,0,0,0,0,1,0,0
CC(C(N)=O)[n+]1ccccc1.[Br-],C0587_A0004,A132065,190,463.15,C8H11BrN2O,8,11,2,1,0,0,0,0,1,0,0
Cc1ccc[n+](C=CC(=O)O)c1.[Br-],C0935_A0004,A132065,191,464.15,C9H10BrNO2,9,10,1,2,0,0,0,0,1,0,0
C=CC[n+]1ccccc1C=NO.[Br-],C0891_A0004,A132065,193,466.15,C9H11BrN2O,9,11,2,1,0,0,0,0,1,0,0
CC(=O)C[n+]1ccccc1C.[Br-],C0108_A0004,A132065,196,469.15,C9H12BrNO,9,12,1,1,0,0,0,0,1,0,0
OCC[n+]1ccccc1C=NO.[Br-],C0631_A0004,A132065,199,472.15,C8H11BrN2O2,8,11,2,2,0,0,0,0,1,0,0
Cc1cc[n+](CC#N)c(C)c1.[Br-],C0423_A0004,A132065,199,472.15,C9H11BrN2,9,11,2,0,0,0,0,0,1,0,0
O=C(O)C[n+]1ccccc1.[Br-],C0921_A0004,A132065,199,472.15,C7H8BrNO2,7,8,1,2,0,0,0,0,1,0,0
NC(=O)CC[n+]1ccccc1.[Br-],C0922_A0004,A132065,199,472.15,C8H11BrN2O,8,11,2,1,0,0,0,0,1,0,0
NC(=O)C[n+]1ccccc1.[Br-],C0274_A0004,A132065,200,473.15,C7H9BrN2O,7,9,2,1,0,0,0,0,1,0,0
CCCC[N+]1(C)CCCC1.O=S(=O)([N-]S(=O)(=O)C(F)(F)F)C(F)(F)F,C0315_A0048,A132065,-5,268.15,C11H20F6N2O4S2,11,20,2,4,2,0,6,0,0,0,0
C[N+]1(CCCC(F)(F)F)CCCC1.O=S(=O)([N-]S(=O)(=O)C(F)(F)F)C(F)(F)F,C1160_A0048,A132065,27,300.15,C11H17F9N2O4S2,11,17,2,4,2,0,9,0,0,0,0
C[N+]1(CCCC(F)(F)F)CCCCC1.O=S(=O)([N-]S(=O)(=O)C(F)(F)F)C(F)(F)F,C1161_A0048,A132065,26,299.15,C12H19F9N2O4S2,12,19,2,4,2,0,9,0,0,0,0
CCOP(=O)([O-])OCC.CC[n+]1ccn(C)c1,C0460_A0091,A132065,20,293.15,C10H21N2O4P,10,21,2,4,0,1,0,0,0,0,0
CCCCOP(=O)([O-])OCCCC.OCC[NH2+]CCO,C1163_A0092,A132065,29,302.15,C12H30NO6P,12,30,1,6,0,1,0,0,0,0,0
CS(=O)(=O)[O-].OCC[NH2+]CCO,C1163_A0054,A132065,29,302.15,C5H15NO5S,5,15,1,5,1,0,0,0,0,0,0
CCCCOP(=O)([O-])OCCCC.OCC[NH+](CCO)CCO,C1164_A0092,A132065,43,316.15,C14H34NO7P,14,34,1,7,0,1,0,0,0,0,0
CC(=O)[O-].OCC[NH+](CCO)CCO,C1164_A0087,A132065,48,321.15,C8H19NO5,8,19,1,5,0,0,0,0,0,0,0
O=C[O-].OCC[NH+](CCO)CCO,C1164_A0024,A132065,63,336.15,C7H17NO5,7,17,1,5,0,0,0,0,0,0,0
CS(=O)(=O)[O-].OCC[NH+](CCO)CCO,C1164_A0054,A132065,70,343.15,C7H19NO6S,7,19,1,6,1,0,0,0,0,0,0
CCCCOP(=O)([O-])OCCCC.CCCC[NH2+]CCCC,C0287_A0092,A132065,63,336.15,C16H38NO4P,16,38,1,4,0,1,0,0,0,0,0
CC(=O)[O-].CCCC[NH2+]CCCC,C0287_A0087,A132065,45,318.15,C10H23NO2,10,23,1,2,0,0,0,0,0,0,0
CCCC[NH2+]CCCC.O=C[O-],C0287_A0024,A132065,28,301.15,C9H21NO2,9,21,1,2,0,0,0,0,0,0,0
CCCC[NH2+]CCCC.CS(=O)(=O)[O-],C0287_A0054,A132065,72,345.15,C9H23NO3S,9,23,1,3,1,0,0,0,0,0,0
CCCC[NH2+]CCCC.NS(=O)(=O)[O-],C0287_A0093,A132065,87,360.15,C8H22N2O3S,8,22,2,3,1,0,0,0,0,0,0
CCCC[NH2+]CCCC.O=C1[N-]S(=O)(=O)c2ccccc21,C0287_A0007,A132065,88,361.15,C15H24N2O3S,15,24,2,3,1,0,0,0,0,0,0
CCCC[NH+](CCCC)CCCC.CS(=O)(=O)[O-],C0932_A0054,A132065,71,344.15,C13H31NO3S,13,31,1,3,1,0,0,0,0,0,0
CCCCOP(=O)([O-])OCCCC.NCC[NH3+],C1165_A0092,A132065,-18,255.15,C10H27N2O4P,10,27,2,4,0,1,0,0,0,0,0
CS(=O)(=O)[O-].NCC[NH3+],C1165_A0054,A132065,55,328.15,C3H12N2O3S,3,12,2,3,1,0,0,0,0,0,0
CC[NH+](CC)CC.CS(=O)(=O)[O-],C0473_A0054,A132065,24,297.15,C7H19NO3S,7,19,1,3,1,0,0,0,0,0,0
CC[NH+](CC)CC.O=C1[N-]S(=O)(=O)c2ccccc21,C0473_A0007,A132065,72,345.15,C13H20N2O3S,13,20,2,3,1,0,0,0,0,0,0
CCCCOP(=O)([O-])OCCCC.CC[NH2+]CC,C1166_A0092,A132065,-7,266.15,C12H30NO4P,12,30,1,4,0,1,0,0,0,0,0
CC(=O)[O-].CC[NH2+]CC,C1166_A0087,A132065,48,321.15,C6H15NO2,6,15,1,2,0,0,0,0,0,0,0
CC[NH2+]CC.O=C[O-],C1166_A0024,A132065,36,309.15,C5H13NO2,5,13,1,2,0,0,0,0,0,0,0
CC[NH2+]CC.CS(=O)(=O)[O-],C1166_A0054,A132065,45,318.15,C5H15NO3S,5,15,1,3,1,0,0,0,0,0,0
CC[NH2+]CC.O=C1[N-]S(=O)(=O)c2ccccc21,C1166_A0007,A132065,78,351.15,C11H16N2O3S,11,16,2,3,1,0,0,0,0,0,0
C1CC[NH2+]C1.CCCCOP(=O)([O-])OCCCC,C1167_A0092,A132065,-4,269.15,C12H28NO4P,12,28,1,4,0,1,0,0,0,0,0
C1CC[NH2+]C1.CC(=O)[O-],C1167_A0087,A132065,31,304.15,C6H13NO2,6,13,1,2,0,0,0,0,0,0,0
C1CC[NH2+]C1.O=C[O-],C1167_A0024,A132065,11,284.15,C5H11NO2,5,11,1,2,0,0,0,0,0,0,0
C1CC[NH2+]C1.CS(=O)(=O)[O-],C1167_A0054,A132065,122,395.15,C5H13NO3S,5,13,1,3,1,0,0,0,0,0,0
C1CC[NH2+]C1.O=C1[N-]S(=O)(=O)c2ccccc21,C1167_A0007,A132065,33,306.15,C11H14N2O3S,11,14,2,3,1,0,0,0,0,0,0
COS(=O)(=O)[O-].CSC(N)=[NH2+],C1169_A0044,A132065,36,309.15,C3H10N2O4S2,3,10,2,4,2,0,0,0,0,0,0
CCSC(N)=[NH2+].[Br-],C1170_A0004,A132065,87,360.15,C3H9BrN2S,3,9,2,0,1,0,0,0,1,0,0
CCSC(N)=[NH2+].O=S(=O)([N-]S(=O)(=O)C(F)(F)F)C(F)(F)F,C1170_A0048,A132065,27,300.15,C5H9F6N3O4S3,5,9,3,4,3,0,6,0,0,0,0
CCSC(NC)=[NH+]C.[Br-],C1171_A0004,A132065,62,335.15,C5H13BrN2S,5,13,2,0,1,0,0,0,1,0,0
CCOS(=O)(=O)[O-].CCSC(NC)=[NH+]C,C1171_A0083,A132065,32,305.15,C7H18N2O4S2,7,18,2,4,2,0,0,0,0,0,0
CCSC(NC)=[NH+]C.O=S(=O)([N-]S(=O)(=O)C(F)(F)F)C(F)(F)F,C1171_A0048,A132065,19,292.15,C7H13F6N3O4S3,7,13,3,4,3,0,6,0,0,0,0
CCSC(N(C)C)=[N+](C)C.[Br-],C0870_A0004,A132065,92,365.15,C7H17BrN2S,7,17,2,0,1,0,0,0,1,0,0
CCNC(=[NH+]CC)SCC.[Br-],C1173_A0004,A132065,40,313.15,C7H17BrN2S,7,17,2,0,1,0,0,0,1,0,0
CCCCSC(N)=[NH2+].[Br-],C1174_A0004,A132065,83,356.15,C5H13BrN2S,5,13,2,0,1,0,0,0,1,0,0
CCCCSC(N)=[NH2+].O=S(=O)([N-]S(=O)(=O)C(F)(F)F)C(F)(F)F,C1174_A0048,A132065,49,322.15,C7H13F6N3O4S3,7,13,3,4,3,0,6,0,0,0,0
CCCCSC(NC)=[NH+]C.[Br-],C1175_A0004,A132065,60,333.15,C7H17BrN2S,7,17,2,0,1,0,0,0,1,0,0
CCCCSC(N(C)C)=[N+](C)C.[Br-],C1176_A0004,A132065,82,355.15,C9H21BrN2S,9,21,2,0,1,0,0,0,1,0,0